s -t 1.000000000 -Hs 0 -Hd -2 -Ni 0 -Nx 0.00 -Ny 100.00 -Nz 100.00 -Ne -1.000000 -Nl AGT -Nw --- -Ma 0 -Md 0 -Ms 0 -Mt 0 -Is 0.0 -Id 1.0 -It cbr -Il 512 -If 0 -Ii 0 -Iv 32 -Pn cbr -Pi 0 -Pf 0 -Po 0 
r -t 1.000000000 -Hs 0 -Hd -2 -Ni 0 -Nx 0.00 -Ny 100.00 -Nz 100.00 -Ne -1.000000 -Nl RTR -Nw --- -Ma 0 -Md 0 -Ms 0 -Mt 0 -Is 0.0 -Id 1.0 -It cbr -Il 512 -If 0 -Ii 0 -Iv 32 -Pn cbr -Pi 0 -Pf 0 -Po 0 
s -t 1.000000000 -Hs 3 -Hd -2 -Ni 3 -Nx 0.00 -Ny 800.00 -Nz 100.00 -Ne -1.000000 -Nl AGT -Nw --- -Ma 0 -Md 0 -Ms 0 -Mt 0 -Is 3.0 -Id 2.0 -It cbr -Il 512 -If 1 -Ii 1 -Iv 32 -Pn cbr -Pi 0 -Pf 0 -Po 0 
r -t 1.000000000 -Hs 3 -Hd -2 -Ni 3 -Nx 0.00 -Ny 800.00 -Nz 100.00 -Ne -1.000000 -Nl RTR -Nw --- -Ma 0 -Md 0 -Ms 0 -Mt 0 -Is 3.0 -Id 2.0 -It cbr -Il 512 -If 1 -Ii 1 -Iv 32 -Pn cbr -Pi 0 -Pf 0 -Po 0 
s -t 1.000000000 -Hs 0 -Hd -2 -Ni 0 -Nx 0.00 -Ny 100.00 -Nz 100.00 -Ne -1.000000 -Nl RTR -Nw --- -Ma 0 -Md 0 -Ms 0 -Mt 0 -Is 0.255 -Id -1.255 -It AODV -Il 48 -If 0 -Ii 0 -Iv 30 -P aodv -Pt 0x2 -Ph 1 -Pb 1 -Pd 1 -Pds 0 -Ps 0 -Pss 4 -Pc REQUEST 
s -t 1.000000000 -Hs 3 -Hd -2 -Ni 3 -Nx 0.00 -Ny 800.00 -Nz 100.00 -Ne -1.000000 -Nl RTR -Nw --- -Ma 0 -Md 0 -Ms 0 -Mt 0 -Is 3.255 -Id -1.255 -It AODV -Il 48 -If 0 -Ii 0 -Iv 30 -P aodv -Pt 0x2 -Ph 1 -Pb 1 -Pd 2 -Pds 0 -Ps 3 -Pss 4 -Pc REQUEST 
s -t 1.000115000 -Hs 3 -Hd -2 -Ni 3 -Nx 0.00 -Ny 800.00 -Nz 100.00 -Ne -1.000000 -Nl MAC -Nw --- -Ma 0 -Md ffffffff -Ms 3 -Mt 800 -Is 3.255 -Id -1.255 -It AODV -Il 106 -If 0 -Ii 0 -Iv 30 -P aodv -Pt 0x2 -Ph 1 -Pb 1 -Pd 2 -Pds 0 -Ps 3 -Pss 4 -Pc REQUEST 
s -t 1.000535000 -Hs 0 -Hd -2 -Ni 0 -Nx 0.00 -Ny 100.00 -Nz 100.00 -Ne -1.000000 -Nl MAC -Nw --- -Ma 0 -Md ffffffff -Ms 0 -Mt 800 -Is 0.255 -Id -1.255 -It AODV -Il 106 -If 0 -Ii 0 -Iv 30 -P aodv -Pt 0x2 -Ph 1 -Pb 1 -Pd 1 -Pds 0 -Ps 0 -Pss 4 -Pc REQUEST 
r -t 1.000964000 -Hs 2 -Hd -2 -Ni 2 -Nx 300.00 -Ny 800.00 -Nz 100.00 -Ne -1.000000 -Nl MAC -Nw --- -Ma 0 -Md ffffffff -Ms 3 -Mt 800 -Is 3.255 -Id -1.255 -It AODV -Il 48 -If 0 -Ii 0 -Iv 30 -P aodv -Pt 0x2 -Ph 1 -Pb 1 -Pd 2 -Pds 0 -Ps 3 -Pss 4 -Pc REQUEST 
r -t 1.000989000 -Hs 2 -Hd -2 -Ni 2 -Nx 300.00 -Ny 800.00 -Nz 100.00 -Ne -1.000000 -Nl RTR -Nw --- -Ma 0 -Md ffffffff -Ms 3 -Mt 800 -Is 3.255 -Id -1.255 -It AODV -Il 48 -If 0 -Ii 0 -Iv 30 -P aodv -Pt 0x2 -Ph 1 -Pb 1 -Pd 2 -Pds 0 -Ps 3 -Pss 4 -Pc REQUEST 
s -t 1.000989000 -Hs 2 -Hd 3 -Ni 2 -Nx 300.00 -Ny 800.00 -Nz 100.00 -Ne -1.000000 -Nl RTR -Nw --- -Ma 0 -Md 0 -Ms 0 -Mt 0 -Is 2.255 -Id 3.255 -It AODV -Il 44 -If 0 -Ii 0 -Iv 30 -P aodv -Pt 0x4 -Ph 1 -Pd 2 -Pds 4 -Pl 10.000000 -Pc REPLY 
s -t 1.001344000 -Hs 2 -Hd -2 -Ni 2 -Nx 300.00 -Ny 800.00 -Nz 100.00 -Ne -1.000000 -Nl MAC -Nw --- -Ma 0 -Md ffffffff -Ms 2 -Mt 806 -P arp -Po REQUEST -Pms 2 -Ps 2 -Pmd 0 -Pd 3 
r -t 1.001384000 -Hs 1 -Hd -2 -Ni 1 -Nx 300.00 -Ny 100.00 -Nz 100.00 -Ne -1.000000 -Nl MAC -Nw --- -Ma 0 -Md ffffffff -Ms 0 -Mt 800 -Is 0.255 -Id -1.255 -It AODV -Il 48 -If 0 -Ii 0 -Iv 30 -P aodv -Pt 0x2 -Ph 1 -Pb 1 -Pd 1 -Pds 0 -Ps 0 -Pss 4 -Pc REQUEST 
r -t 1.001409000 -Hs 1 -Hd -2 -Ni 1 -Nx 300.00 -Ny 100.00 -Nz 100.00 -Ne -1.000000 -Nl RTR -Nw --- -Ma 0 -Md ffffffff -Ms 0 -Mt 800 -Is 0.255 -Id -1.255 -It AODV -Il 48 -If 0 -Ii 0 -Iv 30 -P aodv -Pt 0x2 -Ph 1 -Pb 1 -Pd 1 -Pds 0 -Ps 0 -Pss 4 -Pc REQUEST 
s -t 1.001409000 -Hs 1 -Hd 0 -Ni 1 -Nx 300.00 -Ny 100.00 -Nz 100.00 -Ne -1.000000 -Nl RTR -Nw --- -Ma 0 -Md 0 -Ms 0 -Mt 0 -Is 1.255 -Id 0.255 -It AODV -Il 44 -If 0 -Ii 0 -Iv 30 -P aodv -Pt 0x4 -Ph 1 -Pd 1 -Pds 4 -Pl 10.000000 -Pc REPLY 
s -t 1.001464000 -Hs 1 -Hd -2 -Ni 1 -Nx 300.00 -Ny 100.00 -Nz 100.00 -Ne -1.000000 -Nl MAC -Nw --- -Ma 0 -Md ffffffff -Ms 1 -Mt 806 -P arp -Po REQUEST -Pms 1 -Ps 1 -Pmd 0 -Pd 0 
r -t 1.002033000 -Hs 3 -Hd -2 -Ni 3 -Nx 0.00 -Ny 800.00 -Nz 100.00 -Ne -1.000000 -Nl MAC -Nw --- -Ma 0 -Md ffffffff -Ms 2 -Mt 806 -P arp -Po REQUEST -Pms 2 -Ps 2 -Pmd 0 -Pd 3 
r -t 1.002153000 -Hs 0 -Hd -2 -Ni 0 -Nx 0.00 -Ny 100.00 -Nz 100.00 -Ne -1.000000 -Nl MAC -Nw --- -Ma 0 -Md ffffffff -Ms 1 -Mt 806 -P arp -Po REQUEST -Pms 1 -Ps 1 -Pmd 0 -Pd 0 
s -t 1.002323000 -Hs 3 -Hd -2 -Ni 3 -Nx 0.00 -Ny 800.00 -Nz 100.00 -Ne -1.000000 -Nl MAC -Nw --- -Ma 52e -Md 2 -Ms 3 -Mt 0 
s -t 1.002503000 -Hs 0 -Hd -2 -Ni 0 -Nx 0.00 -Ny 100.00 -Nz 100.00 -Ne -1.000000 -Nl MAC -Nw --- -Ma 52e -Md 1 -Ms 0 -Mt 0 
r -t 1.002676000 -Hs 2 -Hd -2 -Ni 2 -Nx 300.00 -Ny 800.00 -Nz 100.00 -Ne -1.000000 -Nl MAC -Nw --- -Ma 52e -Md 2 -Ms 3 -Mt 0 
s -t 1.002686000 -Hs 2 -Hd -2 -Ni 2 -Nx 300.00 -Ny 800.00 -Nz 100.00 -Ne -1.000000 -Nl MAC -Nw --- -Ma 3f4 -Md 3 -Ms 0 -Mt 0 
r -t 1.002856000 -Hs 1 -Hd -2 -Ni 1 -Nx 300.00 -Ny 100.00 -Nz 100.00 -Ne -1.000000 -Nl MAC -Nw --- -Ma 52e -Md 1 -Ms 0 -Mt 0 
s -t 1.002866000 -Hs 1 -Hd -2 -Ni 1 -Nx 300.00 -Ny 100.00 -Nz 100.00 -Ne -1.000000 -Nl MAC -Nw --- -Ma 3f4 -Md 0 -Ms 0 -Mt 0 
r -t 1.002991000 -Hs 3 -Hd -2 -Ni 3 -Nx 0.00 -Ny 800.00 -Nz 100.00 -Ne -1.000000 -Nl MAC -Nw --- -Ma 3f4 -Md 3 -Ms 0 -Mt 0 
s -t 1.003001000 -Hs 3 -Hd -2 -Ni 3 -Nx 0.00 -Ny 800.00 -Nz 100.00 -Ne -1.000000 -Nl MAC -Nw --- -Ma 13a -Md 2 -Ms 3 -Mt 806 -P arp -Po REPLY -Pms 3 -Ps 3 -Pmd 2 -Pd 2 
r -t 1.003171000 -Hs 0 -Hd -2 -Ni 0 -Nx 0.00 -Ny 100.00 -Nz 100.00 -Ne -1.000000 -Nl MAC -Nw --- -Ma 3f4 -Md 0 -Ms 0 -Mt 0 
s -t 1.003181000 -Hs 0 -Hd -2 -Ni 0 -Nx 0.00 -Ny 100.00 -Nz 100.00 -Ne -1.000000 -Nl MAC -Nw --- -Ma 13a -Md 1 -Ms 0 -Mt 806 -P arp -Po REPLY -Pms 0 -Ps 0 -Pmd 1 -Pd 1 
r -t 1.003690000 -Hs 2 -Hd -2 -Ni 2 -Nx 300.00 -Ny 800.00 -Nz 100.00 -Ne -1.000000 -Nl MAC -Nw --- -Ma 13a -Md 2 -Ms 3 -Mt 806 -P arp -Po REPLY -Pms 3 -Ps 3 -Pmd 2 -Pd 2 
s -t 1.003700000 -Hs 2 -Hd -2 -Ni 2 -Nx 300.00 -Ny 800.00 -Nz 100.00 -Ne -1.000000 -Nl MAC -Nw --- -Ma 0 -Md 3 -Ms 0 -Mt 0 
r -t 1.003870000 -Hs 1 -Hd -2 -Ni 1 -Nx 300.00 -Ny 100.00 -Nz 100.00 -Ne -1.000000 -Nl MAC -Nw --- -Ma 13a -Md 1 -Ms 0 -Mt 806 -P arp -Po REPLY -Pms 0 -Ps 0 -Pmd 1 -Pd 1 
s -t 1.003880000 -Hs 1 -Hd -2 -Ni 1 -Nx 300.00 -Ny 100.00 -Nz 100.00 -Ne -1.000000 -Nl MAC -Nw --- -Ma 0 -Md 0 -Ms 0 -Mt 0 
r -t 1.004005000 -Hs 3 -Hd -2 -Ni 3 -Nx 0.00 -Ny 800.00 -Nz 100.00 -Ne -1.000000 -Nl MAC -Nw --- -Ma 0 -Md 3 -Ms 0 -Mt 0 
r -t 1.004185000 -Hs 0 -Hd -2 -Ni 0 -Nx 0.00 -Ny 100.00 -Nz 100.00 -Ne -1.000000 -Nl MAC -Nw --- -Ma 0 -Md 0 -Ms 0 -Mt 0 
s -t 1.004294000 -Hs 2 -Hd -2 -Ni 2 -Nx 300.00 -Ny 800.00 -Nz 100.00 -Ne -1.000000 -Nl MAC -Nw --- -Ma 5ae -Md 3 -Ms 2 -Mt 0 
s -t 1.004494000 -Hs 1 -Hd -2 -Ni 1 -Nx 300.00 -Ny 100.00 -Nz 100.00 -Ne -1.000000 -Nl MAC -Nw --- -Ma 5ae -Md 0 -Ms 1 -Mt 0 
r -t 1.004647000 -Hs 3 -Hd -2 -Ni 3 -Nx 0.00 -Ny 800.00 -Nz 100.00 -Ne -1.000000 -Nl MAC -Nw --- -Ma 5ae -Md 3 -Ms 2 -Mt 0 
s -t 1.004657000 -Hs 3 -Hd -2 -Ni 3 -Nx 0.00 -Ny 800.00 -Nz 100.00 -Ne -1.000000 -Nl MAC -Nw --- -Ma 474 -Md 2 -Ms 0 -Mt 0 
r -t 1.004847000 -Hs 0 -Hd -2 -Ni 0 -Nx 0.00 -Ny 100.00 -Nz 100.00 -Ne -1.000000 -Nl MAC -Nw --- -Ma 5ae -Md 0 -Ms 1 -Mt 0 
s -t 1.004857000 -Hs 0 -Hd -2 -Ni 0 -Nx 0.00 -Ny 100.00 -Nz 100.00 -Ne -1.000000 -Nl MAC -Nw --- -Ma 474 -Md 1 -Ms 0 -Mt 0 
r -t 1.004962000 -Hs 2 -Hd -2 -Ni 2 -Nx 300.00 -Ny 800.00 -Nz 100.00 -Ne -1.000000 -Nl MAC -Nw --- -Ma 474 -Md 2 -Ms 0 -Mt 0 
s -t 1.004972000 -Hs 2 -Hd 3 -Ni 2 -Nx 300.00 -Ny 800.00 -Nz 100.00 -Ne -1.000000 -Nl MAC -Nw --- -Ma 13a -Md 3 -Ms 2 -Mt 800 -Is 2.255 -Id 3.255 -It AODV -Il 102 -If 0 -Ii 0 -Iv 30 -P aodv -Pt 0x4 -Ph 1 -Pd 2 -Pds 4 -Pl 10.000000 -Pc REPLY 
r -t 1.005162000 -Hs 1 -Hd -2 -Ni 1 -Nx 300.00 -Ny 100.00 -Nz 100.00 -Ne -1.000000 -Nl MAC -Nw --- -Ma 474 -Md 1 -Ms 0 -Mt 0 
s -t 1.005172000 -Hs 1 -Hd 0 -Ni 1 -Nx 300.00 -Ny 100.00 -Nz 100.00 -Ne -1.000000 -Nl MAC -Nw --- -Ma 13a -Md 0 -Ms 1 -Mt 800 -Is 1.255 -Id 0.255 -It AODV -Il 102 -If 0 -Ii 0 -Iv 30 -P aodv -Pt 0x4 -Ph 1 -Pd 1 -Pds 4 -Pl 10.000000 -Pc REPLY 
r -t 1.005789000 -Hs 3 -Hd 3 -Ni 3 -Nx 0.00 -Ny 800.00 -Nz 100.00 -Ne -1.000000 -Nl MAC -Nw --- -Ma 13a -Md 3 -Ms 2 -Mt 800 -Is 2.255 -Id 3.255 -It AODV -Il 44 -If 0 -Ii 0 -Iv 30 -P aodv -Pt 0x4 -Ph 1 -Pd 2 -Pds 4 -Pl 10.000000 -Pc REPLY 
s -t 1.005799000 -Hs 3 -Hd -2 -Ni 3 -Nx 0.00 -Ny 800.00 -Nz 100.00 -Ne -1.000000 -Nl MAC -Nw --- -Ma 0 -Md 2 -Ms 0 -Mt 0 
r -t 1.005814000 -Hs 3 -Hd 3 -Ni 3 -Nx 0.00 -Ny 800.00 -Nz 100.00 -Ne -1.000000 -Nl RTR -Nw --- -Ma 13a -Md 3 -Ms 2 -Mt 800 -Is 2.255 -Id 3.255 -It AODV -Il 44 -If 0 -Ii 0 -Iv 30 -P aodv -Pt 0x4 -Ph 1 -Pd 2 -Pds 4 -Pl 10.000000 -Pc REPLY 
s -t 1.005814000 -Hs 3 -Hd 2 -Ni 3 -Nx 0.00 -Ny 800.00 -Nz 100.00 -Ne -1.000000 -Nl RTR -Nw --- -Ma 0 -Md 0 -Ms 0 -Mt 0 -Is 3.0 -Id 2.0 -It cbr -Il 532 -If 1 -Ii 1 -Iv 30 -Pn cbr -Pi 0 -Pf 0 -Po 0 
r -t 1.005989000 -Hs 0 -Hd 0 -Ni 0 -Nx 0.00 -Ny 100.00 -Nz 100.00 -Ne -1.000000 -Nl MAC -Nw --- -Ma 13a -Md 0 -Ms 1 -Mt 800 -Is 1.255 -Id 0.255 -It AODV -Il 44 -If 0 -Ii 0 -Iv 30 -P aodv -Pt 0x4 -Ph 1 -Pd 1 -Pds 4 -Pl 10.000000 -Pc REPLY 
s -t 1.005999000 -Hs 0 -Hd -2 -Ni 0 -Nx 0.00 -Ny 100.00 -Nz 100.00 -Ne -1.000000 -Nl MAC -Nw --- -Ma 0 -Md 1 -Ms 0 -Mt 0 
r -t 1.006014000 -Hs 0 -Hd 0 -Ni 0 -Nx 0.00 -Ny 100.00 -Nz 100.00 -Ne -1.000000 -Nl RTR -Nw --- -Ma 13a -Md 0 -Ms 1 -Mt 800 -Is 1.255 -Id 0.255 -It AODV -Il 44 -If 0 -Ii 0 -Iv 30 -P aodv -Pt 0x4 -Ph 1 -Pd 1 -Pds 4 -Pl 10.000000 -Pc REPLY 
s -t 1.006014000 -Hs 0 -Hd 1 -Ni 0 -Nx 0.00 -Ny 100.00 -Nz 100.00 -Ne -1.000000 -Nl RTR -Nw --- -Ma 0 -Md 0 -Ms 0 -Mt 0 -Is 0.0 -Id 1.0 -It cbr -Il 532 -If 0 -Ii 0 -Iv 30 -Pn cbr -Pi 0 -Pf 0 -Po 0 
r -t 1.006104000 -Hs 2 -Hd -2 -Ni 2 -Nx 300.00 -Ny 800.00 -Nz 100.00 -Ne -1.000000 -Nl MAC -Nw --- -Ma 0 -Md 2 -Ms 0 -Mt 0 
s -t 1.006293000 -Hs 3 -Hd -2 -Ni 3 -Nx 0.00 -Ny 800.00 -Nz 100.00 -Ne -1.000000 -Nl MAC -Nw --- -Ma 14ee -Md 2 -Ms 3 -Mt 0 
r -t 1.006304000 -Hs 1 -Hd -2 -Ni 1 -Nx 300.00 -Ny 100.00 -Nz 100.00 -Ne -1.000000 -Nl MAC -Nw --- -Ma 0 -Md 1 -Ms 0 -Mt 0 
s -t 1.006393000 -Hs 0 -Hd -2 -Ni 0 -Nx 0.00 -Ny 100.00 -Nz 100.00 -Ne -1.000000 -Nl MAC -Nw --- -Ma 14ee -Md 1 -Ms 0 -Mt 0 
r -t 1.006646000 -Hs 2 -Hd -2 -Ni 2 -Nx 300.00 -Ny 800.00 -Nz 100.00 -Ne -1.000000 -Nl MAC -Nw --- -Ma 14ee -Md 2 -Ms 3 -Mt 0 
s -t 1.006656000 -Hs 2 -Hd -2 -Ni 2 -Nx 300.00 -Ny 800.00 -Nz 100.00 -Ne -1.000000 -Nl MAC -Nw --- -Ma 13b4 -Md 3 -Ms 0 -Mt 0 
r -t 1.006746000 -Hs 1 -Hd -2 -Ni 1 -Nx 300.00 -Ny 100.00 -Nz 100.00 -Ne -1.000000 -Nl MAC -Nw --- -Ma 14ee -Md 1 -Ms 0 -Mt 0 
s -t 1.006756000 -Hs 1 -Hd -2 -Ni 1 -Nx 300.00 -Ny 100.00 -Nz 100.00 -Ne -1.000000 -Nl MAC -Nw --- -Ma 13b4 -Md 0 -Ms 0 -Mt 0 
r -t 1.006961000 -Hs 3 -Hd -2 -Ni 3 -Nx 0.00 -Ny 800.00 -Nz 100.00 -Ne -1.000000 -Nl MAC -Nw --- -Ma 13b4 -Md 3 -Ms 0 -Mt 0 
s -t 1.006971000 -Hs 3 -Hd 2 -Ni 3 -Nx 0.00 -Ny 800.00 -Nz 100.00 -Ne -1.000000 -Nl MAC -Nw --- -Ma 13a -Md 2 -Ms 3 -Mt 800 -Is 3.0 -Id 2.0 -It cbr -Il 590 -If 1 -Ii 1 -Iv 30 -Pn cbr -Pi 0 -Pf 0 -Po 0 
r -t 1.007061000 -Hs 0 -Hd -2 -Ni 0 -Nx 0.00 -Ny 100.00 -Nz 100.00 -Ne -1.000000 -Nl MAC -Nw --- -Ma 13b4 -Md 0 -Ms 0 -Mt 0 
s -t 1.007071000 -Hs 0 -Hd 1 -Ni 0 -Nx 0.00 -Ny 100.00 -Nz 100.00 -Ne -1.000000 -Nl MAC -Nw --- -Ma 13a -Md 1 -Ms 0 -Mt 800 -Is 0.0 -Id 1.0 -It cbr -Il 590 -If 0 -Ii 0 -Iv 30 -Pn cbr -Pi 0 -Pf 0 -Po 0 
r -t 1.011692000 -Hs 2 -Hd 2 -Ni 2 -Nx 300.00 -Ny 800.00 -Nz 100.00 -Ne -1.000000 -Nl MAC -Nw --- -Ma 13a -Md 2 -Ms 3 -Mt 800 -Is 3.0 -Id 2.0 -It cbr -Il 532 -If 1 -Ii 1 -Iv 30 -Pn cbr -Pi 0 -Pf 1 -Po 0 
s -t 1.011702000 -Hs 2 -Hd -2 -Ni 2 -Nx 300.00 -Ny 800.00 -Nz 100.00 -Ne -1.000000 -Nl MAC -Nw --- -Ma 0 -Md 3 -Ms 0 -Mt 0 
r -t 1.011717000 -Hs 2 -Hd 2 -Ni 2 -Nx 300.00 -Ny 800.00 -Nz 100.00 -Ne -1.000000 -Nl AGT -Nw --- -Ma 13a -Md 2 -Ms 3 -Mt 800 -Is 3.0 -Id 2.0 -It cbr -Il 532 -If 1 -Ii 1 -Iv 30 -Pn cbr -Pi 0 -Pf 1 -Po 0 
r -t 1.011792000 -Hs 1 -Hd 1 -Ni 1 -Nx 300.00 -Ny 100.00 -Nz 100.00 -Ne -1.000000 -Nl MAC -Nw --- -Ma 13a -Md 1 -Ms 0 -Mt 800 -Is 0.0 -Id 1.0 -It cbr -Il 532 -If 0 -Ii 0 -Iv 30 -Pn cbr -Pi 0 -Pf 1 -Po 0 
s -t 1.011802000 -Hs 1 -Hd -2 -Ni 1 -Nx 300.00 -Ny 100.00 -Nz 100.00 -Ne -1.000000 -Nl MAC -Nw --- -Ma 0 -Md 0 -Ms 0 -Mt 0 
r -t 1.011817000 -Hs 1 -Hd 1 -Ni 1 -Nx 300.00 -Ny 100.00 -Nz 100.00 -Ne -1.000000 -Nl AGT -Nw --- -Ma 13a -Md 1 -Ms 0 -Mt 800 -Is 0.0 -Id 1.0 -It cbr -Il 532 -If 0 -Ii 0 -Iv 30 -Pn cbr -Pi 0 -Pf 1 -Po 0 
r -t 1.012007000 -Hs 3 -Hd -2 -Ni 3 -Nx 0.00 -Ny 800.00 -Nz 100.00 -Ne -1.000000 -Nl MAC -Nw --- -Ma 0 -Md 3 -Ms 0 -Mt 0 
r -t 1.012107000 -Hs 0 -Hd -2 -Ni 0 -Nx 0.00 -Ny 100.00 -Nz 100.00 -Ne -1.000000 -Nl MAC -Nw --- -Ma 0 -Md 0 -Ms 0 -Mt 0 
s -t 1.100000000 -Hs 0 -Hd -2 -Ni 0 -Nx 0.00 -Ny 100.00 -Nz 100.00 -Ne -1.000000 -Nl AGT -Nw --- -Ma 0 -Md 0 -Ms 0 -Mt 0 -Is 0.0 -Id 1.0 -It cbr -Il 512 -If 0 -Ii 2 -Iv 32 -Pn cbr -Pi 1 -Pf 0 -Po 0 
r -t 1.100000000 -Hs 0 -Hd -2 -Ni 0 -Nx 0.00 -Ny 100.00 -Nz 100.00 -Ne -1.000000 -Nl RTR -Nw --- -Ma 0 -Md 0 -Ms 0 -Mt 0 -Is 0.0 -Id 1.0 -It cbr -Il 512 -If 0 -Ii 2 -Iv 32 -Pn cbr -Pi 1 -Pf 0 -Po 0 
s -t 1.100000000 -Hs 3 -Hd -2 -Ni 3 -Nx 0.00 -Ny 800.00 -Nz 100.00 -Ne -1.000000 -Nl AGT -Nw --- -Ma 0 -Md 0 -Ms 0 -Mt 0 -Is 3.0 -Id 2.0 -It cbr -Il 512 -If 1 -Ii 3 -Iv 32 -Pn cbr -Pi 1 -Pf 0 -Po 0 
r -t 1.100000000 -Hs 3 -Hd -2 -Ni 3 -Nx 0.00 -Ny 800.00 -Nz 100.00 -Ne -1.000000 -Nl RTR -Nw --- -Ma 0 -Md 0 -Ms 0 -Mt 0 -Is 3.0 -Id 2.0 -It cbr -Il 512 -If 1 -Ii 3 -Iv 32 -Pn cbr -Pi 1 -Pf 0 -Po 0 
s -t 1.100000000 -Hs 0 -Hd 1 -Ni 0 -Nx 0.00 -Ny 100.00 -Nz 100.00 -Ne -1.000000 -Nl RTR -Nw --- -Ma 0 -Md 0 -Ms 0 -Mt 0 -Is 0.0 -Id 1.0 -It cbr -Il 532 -If 0 -Ii 2 -Iv 30 -Pn cbr -Pi 1 -Pf 0 -Po 0 
s -t 1.100000000 -Hs 3 -Hd 2 -Ni 3 -Nx 0.00 -Ny 800.00 -Nz 100.00 -Ne -1.000000 -Nl RTR -Nw --- -Ma 0 -Md 0 -Ms 0 -Mt 0 -Is 3.0 -Id 2.0 -It cbr -Il 532 -If 1 -Ii 3 -Iv 30 -Pn cbr -Pi 1 -Pf 0 -Po 0 
s -t 1.100235000 -Hs 0 -Hd -2 -Ni 0 -Nx 0.00 -Ny 100.00 -Nz 100.00 -Ne -1.000000 -Nl MAC -Nw --- -Ma 14ee -Md 1 -Ms 0 -Mt 0 
s -t 1.100555000 -Hs 3 -Hd -2 -Ni 3 -Nx 0.00 -Ny 800.00 -Nz 100.00 -Ne -1.000000 -Nl MAC -Nw --- -Ma 14ee -Md 2 -Ms 3 -Mt 0 
r -t 1.100588000 -Hs 1 -Hd -2 -Ni 1 -Nx 300.00 -Ny 100.00 -Nz 100.00 -Ne -1.000000 -Nl MAC -Nw --- -Ma 14ee -Md 1 -Ms 0 -Mt 0 
s -t 1.100598000 -Hs 1 -Hd -2 -Ni 1 -Nx 300.00 -Ny 100.00 -Nz 100.00 -Ne -1.000000 -Nl MAC -Nw --- -Ma 13b4 -Md 0 -Ms 0 -Mt 0 
r -t 1.100903000 -Hs 0 -Hd -2 -Ni 0 -Nx 0.00 -Ny 100.00 -Nz 100.00 -Ne -1.000000 -Nl MAC -Nw --- -Ma 13b4 -Md 0 -Ms 0 -Mt 0 
r -t 1.100908000 -Hs 2 -Hd -2 -Ni 2 -Nx 300.00 -Ny 800.00 -Nz 100.00 -Ne -1.000000 -Nl MAC -Nw --- -Ma 14ee -Md 2 -Ms 3 -Mt 0 
s -t 1.100913000 -Hs 0 -Hd 1 -Ni 0 -Nx 0.00 -Ny 100.00 -Nz 100.00 -Ne -1.000000 -Nl MAC -Nw --- -Ma 13a -Md 1 -Ms 0 -Mt 800 -Is 0.0 -Id 1.0 -It cbr -Il 590 -If 0 -Ii 2 -Iv 30 -Pn cbr -Pi 1 -Pf 0 -Po 0 
s -t 1.100918000 -Hs 2 -Hd -2 -Ni 2 -Nx 300.00 -Ny 800.00 -Nz 100.00 -Ne -1.000000 -Nl MAC -Nw --- -Ma 13b4 -Md 3 -Ms 0 -Mt 0 
r -t 1.101223000 -Hs 3 -Hd -2 -Ni 3 -Nx 0.00 -Ny 800.00 -Nz 100.00 -Ne -1.000000 -Nl MAC -Nw --- -Ma 13b4 -Md 3 -Ms 0 -Mt 0 
s -t 1.101233000 -Hs 3 -Hd 2 -Ni 3 -Nx 0.00 -Ny 800.00 -Nz 100.00 -Ne -1.000000 -Nl MAC -Nw --- -Ma 13a -Md 2 -Ms 3 -Mt 800 -Is 3.0 -Id 2.0 -It cbr -Il 590 -If 1 -Ii 3 -Iv 30 -Pn cbr -Pi 1 -Pf 0 -Po 0 
r -t 1.105634000 -Hs 1 -Hd 1 -Ni 1 -Nx 300.00 -Ny 100.00 -Nz 100.00 -Ne -1.000000 -Nl MAC -Nw --- -Ma 13a -Md 1 -Ms 0 -Mt 800 -Is 0.0 -Id 1.0 -It cbr -Il 532 -If 0 -Ii 2 -Iv 30 -Pn cbr -Pi 1 -Pf 1 -Po 0 
s -t 1.105644000 -Hs 1 -Hd -2 -Ni 1 -Nx 300.00 -Ny 100.00 -Nz 100.00 -Ne -1.000000 -Nl MAC -Nw --- -Ma 0 -Md 0 -Ms 0 -Mt 0 
r -t 1.105659000 -Hs 1 -Hd 1 -Ni 1 -Nx 300.00 -Ny 100.00 -Nz 100.00 -Ne -1.000000 -Nl AGT -Nw --- -Ma 13a -Md 1 -Ms 0 -Mt 800 -Is 0.0 -Id 1.0 -It cbr -Il 532 -If 0 -Ii 2 -Iv 30 -Pn cbr -Pi 1 -Pf 1 -Po 0 
r -t 1.105949000 -Hs 0 -Hd -2 -Ni 0 -Nx 0.00 -Ny 100.00 -Nz 100.00 -Ne -1.000000 -Nl MAC -Nw --- -Ma 0 -Md 0 -Ms 0 -Mt 0 
r -t 1.105954000 -Hs 2 -Hd 2 -Ni 2 -Nx 300.00 -Ny 800.00 -Nz 100.00 -Ne -1.000000 -Nl MAC -Nw --- -Ma 13a -Md 2 -Ms 3 -Mt 800 -Is 3.0 -Id 2.0 -It cbr -Il 532 -If 1 -Ii 3 -Iv 30 -Pn cbr -Pi 1 -Pf 1 -Po 0 
s -t 1.105964000 -Hs 2 -Hd -2 -Ni 2 -Nx 300.00 -Ny 800.00 -Nz 100.00 -Ne -1.000000 -Nl MAC -Nw --- -Ma 0 -Md 3 -Ms 0 -Mt 0 
r -t 1.105979000 -Hs 2 -Hd 2 -Ni 2 -Nx 300.00 -Ny 800.00 -Nz 100.00 -Ne -1.000000 -Nl AGT -Nw --- -Ma 13a -Md 2 -Ms 3 -Mt 800 -Is 3.0 -Id 2.0 -It cbr -Il 532 -If 1 -Ii 3 -Iv 30 -Pn cbr -Pi 1 -Pf 1 -Po 0 
r -t 1.106269000 -Hs 3 -Hd -2 -Ni 3 -Nx 0.00 -Ny 800.00 -Nz 100.00 -Ne -1.000000 -Nl MAC -Nw --- -Ma 0 -Md 3 -Ms 0 -Mt 0 
s -t 1.200000000 -Hs 0 -Hd -2 -Ni 0 -Nx 0.00 -Ny 100.00 -Nz 100.00 -Ne -1.000000 -Nl AGT -Nw --- -Ma 0 -Md 0 -Ms 0 -Mt 0 -Is 0.0 -Id 1.0 -It cbr -Il 512 -If 0 -Ii 4 -Iv 32 -Pn cbr -Pi 2 -Pf 0 -Po 0 
r -t 1.200000000 -Hs 0 -Hd -2 -Ni 0 -Nx 0.00 -Ny 100.00 -Nz 100.00 -Ne -1.000000 -Nl RTR -Nw --- -Ma 0 -Md 0 -Ms 0 -Mt 0 -Is 0.0 -Id 1.0 -It cbr -Il 512 -If 0 -Ii 4 -Iv 32 -Pn cbr -Pi 2 -Pf 0 -Po 0 
s -t 1.200000000 -Hs 3 -Hd -2 -Ni 3 -Nx 0.00 -Ny 800.00 -Nz 100.00 -Ne -1.000000 -Nl AGT -Nw --- -Ma 0 -Md 0 -Ms 0 -Mt 0 -Is 3.0 -Id 2.0 -It cbr -Il 512 -If 1 -Ii 5 -Iv 32 -Pn cbr -Pi 2 -Pf 0 -Po 0 
r -t 1.200000000 -Hs 3 -Hd -2 -Ni 3 -Nx 0.00 -Ny 800.00 -Nz 100.00 -Ne -1.000000 -Nl RTR -Nw --- -Ma 0 -Md 0 -Ms 0 -Mt 0 -Is 3.0 -Id 2.0 -It cbr -Il 512 -If 1 -Ii 5 -Iv 32 -Pn cbr -Pi 2 -Pf 0 -Po 0 
s -t 1.200000000 -Hs 0 -Hd 1 -Ni 0 -Nx 0.00 -Ny 100.00 -Nz 100.00 -Ne -1.000000 -Nl RTR -Nw --- -Ma 0 -Md 0 -Ms 0 -Mt 0 -Is 0.0 -Id 1.0 -It cbr -Il 532 -If 0 -Ii 4 -Iv 30 -Pn cbr -Pi 2 -Pf 0 -Po 0 
s -t 1.200000000 -Hs 3 -Hd 2 -Ni 3 -Nx 0.00 -Ny 800.00 -Nz 100.00 -Ne -1.000000 -Nl RTR -Nw --- -Ma 0 -Md 0 -Ms 0 -Mt 0 -Is 3.0 -Id 2.0 -It cbr -Il 532 -If 1 -Ii 5 -Iv 30 -Pn cbr -Pi 2 -Pf 0 -Po 0 
s -t 1.200275000 -Hs 0 -Hd -2 -Ni 0 -Nx 0.00 -Ny 100.00 -Nz 100.00 -Ne -1.000000 -Nl MAC -Nw --- -Ma 14ee -Md 1 -Ms 0 -Mt 0 
s -t 1.200295000 -Hs 3 -Hd -2 -Ni 3 -Nx 0.00 -Ny 800.00 -Nz 100.00 -Ne -1.000000 -Nl MAC -Nw --- -Ma 14ee -Md 2 -Ms 3 -Mt 0 
r -t 1.200628000 -Hs 1 -Hd -2 -Ni 1 -Nx 300.00 -Ny 100.00 -Nz 100.00 -Ne -1.000000 -Nl MAC -Nw --- -Ma 14ee -Md 1 -Ms 0 -Mt 0 
s -t 1.200638000 -Hs 1 -Hd -2 -Ni 1 -Nx 300.00 -Ny 100.00 -Nz 100.00 -Ne -1.000000 -Nl MAC -Nw --- -Ma 13b4 -Md 0 -Ms 0 -Mt 0 
r -t 1.200648000 -Hs 2 -Hd -2 -Ni 2 -Nx 300.00 -Ny 800.00 -Nz 100.00 -Ne -1.000000 -Nl MAC -Nw --- -Ma 14ee -Md 2 -Ms 3 -Mt 0 
s -t 1.200658000 -Hs 2 -Hd -2 -Ni 2 -Nx 300.00 -Ny 800.00 -Nz 100.00 -Ne -1.000000 -Nl MAC -Nw --- -Ma 13b4 -Md 3 -Ms 0 -Mt 0 
r -t 1.200943000 -Hs 0 -Hd -2 -Ni 0 -Nx 0.00 -Ny 100.00 -Nz 100.00 -Ne -1.000000 -Nl MAC -Nw --- -Ma 13b4 -Md 0 -Ms 0 -Mt 0 
s -t 1.200953000 -Hs 0 -Hd 1 -Ni 0 -Nx 0.00 -Ny 100.00 -Nz 100.00 -Ne -1.000000 -Nl MAC -Nw --- -Ma 13a -Md 1 -Ms 0 -Mt 800 -Is 0.0 -Id 1.0 -It cbr -Il 590 -If 0 -Ii 4 -Iv 30 -Pn cbr -Pi 2 -Pf 0 -Po 0 
r -t 1.200963000 -Hs 3 -Hd -2 -Ni 3 -Nx 0.00 -Ny 800.00 -Nz 100.00 -Ne -1.000000 -Nl MAC -Nw --- -Ma 13b4 -Md 3 -Ms 0 -Mt 0 
s -t 1.200973000 -Hs 3 -Hd 2 -Ni 3 -Nx 0.00 -Ny 800.00 -Nz 100.00 -Ne -1.000000 -Nl MAC -Nw --- -Ma 13a -Md 2 -Ms 3 -Mt 800 -Is 3.0 -Id 2.0 -It cbr -Il 590 -If 1 -Ii 5 -Iv 30 -Pn cbr -Pi 2 -Pf 0 -Po 0 
r -t 1.205674000 -Hs 1 -Hd 1 -Ni 1 -Nx 300.00 -Ny 100.00 -Nz 100.00 -Ne -1.000000 -Nl MAC -Nw --- -Ma 13a -Md 1 -Ms 0 -Mt 800 -Is 0.0 -Id 1.0 -It cbr -Il 532 -If 0 -Ii 4 -Iv 30 -Pn cbr -Pi 2 -Pf 1 -Po 0 
s -t 1.205684000 -Hs 1 -Hd -2 -Ni 1 -Nx 300.00 -Ny 100.00 -Nz 100.00 -Ne -1.000000 -Nl MAC -Nw --- -Ma 0 -Md 0 -Ms 0 -Mt 0 
r -t 1.205694000 -Hs 2 -Hd 2 -Ni 2 -Nx 300.00 -Ny 800.00 -Nz 100.00 -Ne -1.000000 -Nl MAC -Nw --- -Ma 13a -Md 2 -Ms 3 -Mt 800 -Is 3.0 -Id 2.0 -It cbr -Il 532 -If 1 -Ii 5 -Iv 30 -Pn cbr -Pi 2 -Pf 1 -Po 0 
r -t 1.205699000 -Hs 1 -Hd 1 -Ni 1 -Nx 300.00 -Ny 100.00 -Nz 100.00 -Ne -1.000000 -Nl AGT -Nw --- -Ma 13a -Md 1 -Ms 0 -Mt 800 -Is 0.0 -Id 1.0 -It cbr -Il 532 -If 0 -Ii 4 -Iv 30 -Pn cbr -Pi 2 -Pf 1 -Po 0 
s -t 1.205704000 -Hs 2 -Hd -2 -Ni 2 -Nx 300.00 -Ny 800.00 -Nz 100.00 -Ne -1.000000 -Nl MAC -Nw --- -Ma 0 -Md 3 -Ms 0 -Mt 0 
r -t 1.205719000 -Hs 2 -Hd 2 -Ni 2 -Nx 300.00 -Ny 800.00 -Nz 100.00 -Ne -1.000000 -Nl AGT -Nw --- -Ma 13a -Md 2 -Ms 3 -Mt 800 -Is 3.0 -Id 2.0 -It cbr -Il 532 -If 1 -Ii 5 -Iv 30 -Pn cbr -Pi 2 -Pf 1 -Po 0 
r -t 1.205989000 -Hs 0 -Hd -2 -Ni 0 -Nx 0.00 -Ny 100.00 -Nz 100.00 -Ne -1.000000 -Nl MAC -Nw --- -Ma 0 -Md 0 -Ms 0 -Mt 0 
r -t 1.206009000 -Hs 3 -Hd -2 -Ni 3 -Nx 0.00 -Ny 800.00 -Nz 100.00 -Ne -1.000000 -Nl MAC -Nw --- -Ma 0 -Md 3 -Ms 0 -Mt 0 
s -t 1.300000000 -Hs 0 -Hd -2 -Ni 0 -Nx 0.00 -Ny 100.00 -Nz 100.00 -Ne -1.000000 -Nl AGT -Nw --- -Ma 0 -Md 0 -Ms 0 -Mt 0 -Is 0.0 -Id 1.0 -It cbr -Il 512 -If 0 -Ii 6 -Iv 32 -Pn cbr -Pi 3 -Pf 0 -Po 0 
r -t 1.300000000 -Hs 0 -Hd -2 -Ni 0 -Nx 0.00 -Ny 100.00 -Nz 100.00 -Ne -1.000000 -Nl RTR -Nw --- -Ma 0 -Md 0 -Ms 0 -Mt 0 -Is 0.0 -Id 1.0 -It cbr -Il 512 -If 0 -Ii 6 -Iv 32 -Pn cbr -Pi 3 -Pf 0 -Po 0 
s -t 1.300000000 -Hs 3 -Hd -2 -Ni 3 -Nx 0.00 -Ny 800.00 -Nz 100.00 -Ne -1.000000 -Nl AGT -Nw --- -Ma 0 -Md 0 -Ms 0 -Mt 0 -Is 3.0 -Id 2.0 -It cbr -Il 512 -If 1 -Ii 7 -Iv 32 -Pn cbr -Pi 3 -Pf 0 -Po 0 
r -t 1.300000000 -Hs 3 -Hd -2 -Ni 3 -Nx 0.00 -Ny 800.00 -Nz 100.00 -Ne -1.000000 -Nl RTR -Nw --- -Ma 0 -Md 0 -Ms 0 -Mt 0 -Is 3.0 -Id 2.0 -It cbr -Il 512 -If 1 -Ii 7 -Iv 32 -Pn cbr -Pi 3 -Pf 0 -Po 0 
s -t 1.300000000 -Hs 0 -Hd 1 -Ni 0 -Nx 0.00 -Ny 100.00 -Nz 100.00 -Ne -1.000000 -Nl RTR -Nw --- -Ma 0 -Md 0 -Ms 0 -Mt 0 -Is 0.0 -Id 1.0 -It cbr -Il 532 -If 0 -Ii 6 -Iv 30 -Pn cbr -Pi 3 -Pf 0 -Po 0 
s -t 1.300000000 -Hs 3 -Hd 2 -Ni 3 -Nx 0.00 -Ny 800.00 -Nz 100.00 -Ne -1.000000 -Nl RTR -Nw --- -Ma 0 -Md 0 -Ms 0 -Mt 0 -Is 3.0 -Id 2.0 -It cbr -Il 532 -If 1 -Ii 7 -Iv 30 -Pn cbr -Pi 3 -Pf 0 -Po 0 
s -t 1.300255000 -Hs 3 -Hd -2 -Ni 3 -Nx 0.00 -Ny 800.00 -Nz 100.00 -Ne -1.000000 -Nl MAC -Nw --- -Ma 14ee -Md 2 -Ms 3 -Mt 0 
s -t 1.300515000 -Hs 0 -Hd -2 -Ni 0 -Nx 0.00 -Ny 100.00 -Nz 100.00 -Ne -1.000000 -Nl MAC -Nw --- -Ma 14ee -Md 1 -Ms 0 -Mt 0 
r -t 1.300608000 -Hs 2 -Hd -2 -Ni 2 -Nx 300.00 -Ny 800.00 -Nz 100.00 -Ne -1.000000 -Nl MAC -Nw --- -Ma 14ee -Md 2 -Ms 3 -Mt 0 
s -t 1.300618000 -Hs 2 -Hd -2 -Ni 2 -Nx 300.00 -Ny 800.00 -Nz 100.00 -Ne -1.000000 -Nl MAC -Nw --- -Ma 13b4 -Md 3 -Ms 0 -Mt 0 
r -t 1.300868000 -Hs 1 -Hd -2 -Ni 1 -Nx 300.00 -Ny 100.00 -Nz 100.00 -Ne -1.000000 -Nl MAC -Nw --- -Ma 14ee -Md 1 -Ms 0 -Mt 0 
s -t 1.300878000 -Hs 1 -Hd -2 -Ni 1 -Nx 300.00 -Ny 100.00 -Nz 100.00 -Ne -1.000000 -Nl MAC -Nw --- -Ma 13b4 -Md 0 -Ms 0 -Mt 0 
r -t 1.300923000 -Hs 3 -Hd -2 -Ni 3 -Nx 0.00 -Ny 800.00 -Nz 100.00 -Ne -1.000000 -Nl MAC -Nw --- -Ma 13b4 -Md 3 -Ms 0 -Mt 0 
s -t 1.300933000 -Hs 3 -Hd 2 -Ni 3 -Nx 0.00 -Ny 800.00 -Nz 100.00 -Ne -1.000000 -Nl MAC -Nw --- -Ma 13a -Md 2 -Ms 3 -Mt 800 -Is 3.0 -Id 2.0 -It cbr -Il 590 -If 1 -Ii 7 -Iv 30 -Pn cbr -Pi 3 -Pf 0 -Po 0 
r -t 1.301183000 -Hs 0 -Hd -2 -Ni 0 -Nx 0.00 -Ny 100.00 -Nz 100.00 -Ne -1.000000 -Nl MAC -Nw --- -Ma 13b4 -Md 0 -Ms 0 -Mt 0 
s -t 1.301193000 -Hs 0 -Hd 1 -Ni 0 -Nx 0.00 -Ny 100.00 -Nz 100.00 -Ne -1.000000 -Nl MAC -Nw --- -Ma 13a -Md 1 -Ms 0 -Mt 800 -Is 0.0 -Id 1.0 -It cbr -Il 590 -If 0 -Ii 6 -Iv 30 -Pn cbr -Pi 3 -Pf 0 -Po 0 
r -t 1.305654000 -Hs 2 -Hd 2 -Ni 2 -Nx 300.00 -Ny 800.00 -Nz 100.00 -Ne -1.000000 -Nl MAC -Nw --- -Ma 13a -Md 2 -Ms 3 -Mt 800 -Is 3.0 -Id 2.0 -It cbr -Il 532 -If 1 -Ii 7 -Iv 30 -Pn cbr -Pi 3 -Pf 1 -Po 0 
s -t 1.305664000 -Hs 2 -Hd -2 -Ni 2 -Nx 300.00 -Ny 800.00 -Nz 100.00 -Ne -1.000000 -Nl MAC -Nw --- -Ma 0 -Md 3 -Ms 0 -Mt 0 
r -t 1.305679000 -Hs 2 -Hd 2 -Ni 2 -Nx 300.00 -Ny 800.00 -Nz 100.00 -Ne -1.000000 -Nl AGT -Nw --- -Ma 13a -Md 2 -Ms 3 -Mt 800 -Is 3.0 -Id 2.0 -It cbr -Il 532 -If 1 -Ii 7 -Iv 30 -Pn cbr -Pi 3 -Pf 1 -Po 0 
r -t 1.305914000 -Hs 1 -Hd 1 -Ni 1 -Nx 300.00 -Ny 100.00 -Nz 100.00 -Ne -1.000000 -Nl MAC -Nw --- -Ma 13a -Md 1 -Ms 0 -Mt 800 -Is 0.0 -Id 1.0 -It cbr -Il 532 -If 0 -Ii 6 -Iv 30 -Pn cbr -Pi 3 -Pf 1 -Po 0 
s -t 1.305924000 -Hs 1 -Hd -2 -Ni 1 -Nx 300.00 -Ny 100.00 -Nz 100.00 -Ne -1.000000 -Nl MAC -Nw --- -Ma 0 -Md 0 -Ms 0 -Mt 0 
r -t 1.305939000 -Hs 1 -Hd 1 -Ni 1 -Nx 300.00 -Ny 100.00 -Nz 100.00 -Ne -1.000000 -Nl AGT -Nw --- -Ma 13a -Md 1 -Ms 0 -Mt 800 -Is 0.0 -Id 1.0 -It cbr -Il 532 -If 0 -Ii 6 -Iv 30 -Pn cbr -Pi 3 -Pf 1 -Po 0 
r -t 1.305969000 -Hs 3 -Hd -2 -Ni 3 -Nx 0.00 -Ny 800.00 -Nz 100.00 -Ne -1.000000 -Nl MAC -Nw --- -Ma 0 -Md 3 -Ms 0 -Mt 0 
r -t 1.306229000 -Hs 0 -Hd -2 -Ni 0 -Nx 0.00 -Ny 100.00 -Nz 100.00 -Ne -1.000000 -Nl MAC -Nw --- -Ma 0 -Md 0 -Ms 0 -Mt 0 
s -t 1.400000000 -Hs 0 -Hd -2 -Ni 0 -Nx 0.00 -Ny 100.00 -Nz 100.00 -Ne -1.000000 -Nl AGT -Nw --- -Ma 0 -Md 0 -Ms 0 -Mt 0 -Is 0.0 -Id 1.0 -It cbr -Il 512 -If 0 -Ii 8 -Iv 32 -Pn cbr -Pi 4 -Pf 0 -Po 0 
r -t 1.400000000 -Hs 0 -Hd -2 -Ni 0 -Nx 0.00 -Ny 100.00 -Nz 100.00 -Ne -1.000000 -Nl RTR -Nw --- -Ma 0 -Md 0 -Ms 0 -Mt 0 -Is 0.0 -Id 1.0 -It cbr -Il 512 -If 0 -Ii 8 -Iv 32 -Pn cbr -Pi 4 -Pf 0 -Po 0 
s -t 1.400000000 -Hs 3 -Hd -2 -Ni 3 -Nx 0.00 -Ny 800.00 -Nz 100.00 -Ne -1.000000 -Nl AGT -Nw --- -Ma 0 -Md 0 -Ms 0 -Mt 0 -Is 3.0 -Id 2.0 -It cbr -Il 512 -If 1 -Ii 9 -Iv 32 -Pn cbr -Pi 4 -Pf 0 -Po 0 
r -t 1.400000000 -Hs 3 -Hd -2 -Ni 3 -Nx 0.00 -Ny 800.00 -Nz 100.00 -Ne -1.000000 -Nl RTR -Nw --- -Ma 0 -Md 0 -Ms 0 -Mt 0 -Is 3.0 -Id 2.0 -It cbr -Il 512 -If 1 -Ii 9 -Iv 32 -Pn cbr -Pi 4 -Pf 0 -Po 0 
s -t 1.400000000 -Hs 0 -Hd 1 -Ni 0 -Nx 0.00 -Ny 100.00 -Nz 100.00 -Ne -1.000000 -Nl RTR -Nw --- -Ma 0 -Md 0 -Ms 0 -Mt 0 -Is 0.0 -Id 1.0 -It cbr -Il 532 -If 0 -Ii 8 -Iv 30 -Pn cbr -Pi 4 -Pf 0 -Po 0 
s -t 1.400000000 -Hs 3 -Hd 2 -Ni 3 -Nx 0.00 -Ny 800.00 -Nz 100.00 -Ne -1.000000 -Nl RTR -Nw --- -Ma 0 -Md 0 -Ms 0 -Mt 0 -Is 3.0 -Id 2.0 -It cbr -Il 532 -If 1 -Ii 9 -Iv 30 -Pn cbr -Pi 4 -Pf 0 -Po 0 
s -t 1.400435000 -Hs 3 -Hd -2 -Ni 3 -Nx 0.00 -Ny 800.00 -Nz 100.00 -Ne -1.000000 -Nl MAC -Nw --- -Ma 14ee -Md 2 -Ms 3 -Mt 0 
s -t 1.400615000 -Hs 0 -Hd -2 -Ni 0 -Nx 0.00 -Ny 100.00 -Nz 100.00 -Ne -1.000000 -Nl MAC -Nw --- -Ma 14ee -Md 1 -Ms 0 -Mt 0 
r -t 1.400788000 -Hs 2 -Hd -2 -Ni 2 -Nx 300.00 -Ny 800.00 -Nz 100.00 -Ne -1.000000 -Nl MAC -Nw --- -Ma 14ee -Md 2 -Ms 3 -Mt 0 
s -t 1.400798000 -Hs 2 -Hd -2 -Ni 2 -Nx 300.00 -Ny 800.00 -Nz 100.00 -Ne -1.000000 -Nl MAC -Nw --- -Ma 13b4 -Md 3 -Ms 0 -Mt 0 
r -t 1.400968000 -Hs 1 -Hd -2 -Ni 1 -Nx 300.00 -Ny 100.00 -Nz 100.00 -Ne -1.000000 -Nl MAC -Nw --- -Ma 14ee -Md 1 -Ms 0 -Mt 0 
s -t 1.400978000 -Hs 1 -Hd -2 -Ni 1 -Nx 300.00 -Ny 100.00 -Nz 100.00 -Ne -1.000000 -Nl MAC -Nw --- -Ma 13b4 -Md 0 -Ms 0 -Mt 0 
r -t 1.401103000 -Hs 3 -Hd -2 -Ni 3 -Nx 0.00 -Ny 800.00 -Nz 100.00 -Ne -1.000000 -Nl MAC -Nw --- -Ma 13b4 -Md 3 -Ms 0 -Mt 0 
s -t 1.401113000 -Hs 3 -Hd 2 -Ni 3 -Nx 0.00 -Ny 800.00 -Nz 100.00 -Ne -1.000000 -Nl MAC -Nw --- -Ma 13a -Md 2 -Ms 3 -Mt 800 -Is 3.0 -Id 2.0 -It cbr -Il 590 -If 1 -Ii 9 -Iv 30 -Pn cbr -Pi 4 -Pf 0 -Po 0 
r -t 1.401283000 -Hs 0 -Hd -2 -Ni 0 -Nx 0.00 -Ny 100.00 -Nz 100.00 -Ne -1.000000 -Nl MAC -Nw --- -Ma 13b4 -Md 0 -Ms 0 -Mt 0 
s -t 1.401293000 -Hs 0 -Hd 1 -Ni 0 -Nx 0.00 -Ny 100.00 -Nz 100.00 -Ne -1.000000 -Nl MAC -Nw --- -Ma 13a -Md 1 -Ms 0 -Mt 800 -Is 0.0 -Id 1.0 -It cbr -Il 590 -If 0 -Ii 8 -Iv 30 -Pn cbr -Pi 4 -Pf 0 -Po 0 
r -t 1.405834000 -Hs 2 -Hd 2 -Ni 2 -Nx 300.00 -Ny 800.00 -Nz 100.00 -Ne -1.000000 -Nl MAC -Nw --- -Ma 13a -Md 2 -Ms 3 -Mt 800 -Is 3.0 -Id 2.0 -It cbr -Il 532 -If 1 -Ii 9 -Iv 30 -Pn cbr -Pi 4 -Pf 1 -Po 0 
s -t 1.405844000 -Hs 2 -Hd -2 -Ni 2 -Nx 300.00 -Ny 800.00 -Nz 100.00 -Ne -1.000000 -Nl MAC -Nw --- -Ma 0 -Md 3 -Ms 0 -Mt 0 
r -t 1.405859000 -Hs 2 -Hd 2 -Ni 2 -Nx 300.00 -Ny 800.00 -Nz 100.00 -Ne -1.000000 -Nl AGT -Nw --- -Ma 13a -Md 2 -Ms 3 -Mt 800 -Is 3.0 -Id 2.0 -It cbr -Il 532 -If 1 -Ii 9 -Iv 30 -Pn cbr -Pi 4 -Pf 1 -Po 0 
r -t 1.406014000 -Hs 1 -Hd 1 -Ni 1 -Nx 300.00 -Ny 100.00 -Nz 100.00 -Ne -1.000000 -Nl MAC -Nw --- -Ma 13a -Md 1 -Ms 0 -Mt 800 -Is 0.0 -Id 1.0 -It cbr -Il 532 -If 0 -Ii 8 -Iv 30 -Pn cbr -Pi 4 -Pf 1 -Po 0 
s -t 1.406024000 -Hs 1 -Hd -2 -Ni 1 -Nx 300.00 -Ny 100.00 -Nz 100.00 -Ne -1.000000 -Nl MAC -Nw --- -Ma 0 -Md 0 -Ms 0 -Mt 0 
r -t 1.406039000 -Hs 1 -Hd 1 -Ni 1 -Nx 300.00 -Ny 100.00 -Nz 100.00 -Ne -1.000000 -Nl AGT -Nw --- -Ma 13a -Md 1 -Ms 0 -Mt 800 -Is 0.0 -Id 1.0 -It cbr -Il 532 -If 0 -Ii 8 -Iv 30 -Pn cbr -Pi 4 -Pf 1 -Po 0 
r -t 1.406149000 -Hs 3 -Hd -2 -Ni 3 -Nx 0.00 -Ny 800.00 -Nz 100.00 -Ne -1.000000 -Nl MAC -Nw --- -Ma 0 -Md 3 -Ms 0 -Mt 0 
r -t 1.406329000 -Hs 0 -Hd -2 -Ni 0 -Nx 0.00 -Ny 100.00 -Nz 100.00 -Ne -1.000000 -Nl MAC -Nw --- -Ma 0 -Md 0 -Ms 0 -Mt 0 
s -t 1.500000000 -Hs 0 -Hd -2 -Ni 0 -Nx 0.00 -Ny 100.00 -Nz 100.00 -Ne -1.000000 -Nl AGT -Nw --- -Ma 0 -Md 0 -Ms 0 -Mt 0 -Is 0.0 -Id 1.0 -It cbr -Il 512 -If 0 -Ii 10 -Iv 32 -Pn cbr -Pi 5 -Pf 0 -Po 0 
r -t 1.500000000 -Hs 0 -Hd -2 -Ni 0 -Nx 0.00 -Ny 100.00 -Nz 100.00 -Ne -1.000000 -Nl RTR -Nw --- -Ma 0 -Md 0 -Ms 0 -Mt 0 -Is 0.0 -Id 1.0 -It cbr -Il 512 -If 0 -Ii 10 -Iv 32 -Pn cbr -Pi 5 -Pf 0 -Po 0 
s -t 1.500000000 -Hs 3 -Hd -2 -Ni 3 -Nx 0.00 -Ny 800.00 -Nz 100.00 -Ne -1.000000 -Nl AGT -Nw --- -Ma 0 -Md 0 -Ms 0 -Mt 0 -Is 3.0 -Id 2.0 -It cbr -Il 512 -If 1 -Ii 11 -Iv 32 -Pn cbr -Pi 5 -Pf 0 -Po 0 
r -t 1.500000000 -Hs 3 -Hd -2 -Ni 3 -Nx 0.00 -Ny 800.00 -Nz 100.00 -Ne -1.000000 -Nl RTR -Nw --- -Ma 0 -Md 0 -Ms 0 -Mt 0 -Is 3.0 -Id 2.0 -It cbr -Il 512 -If 1 -Ii 11 -Iv 32 -Pn cbr -Pi 5 -Pf 0 -Po 0 
s -t 1.500000000 -Hs 0 -Hd 1 -Ni 0 -Nx 0.00 -Ny 100.00 -Nz 100.00 -Ne -1.000000 -Nl RTR -Nw --- -Ma 0 -Md 0 -Ms 0 -Mt 0 -Is 0.0 -Id 1.0 -It cbr -Il 532 -If 0 -Ii 10 -Iv 30 -Pn cbr -Pi 5 -Pf 0 -Po 0 
s -t 1.500000000 -Hs 3 -Hd 2 -Ni 3 -Nx 0.00 -Ny 800.00 -Nz 100.00 -Ne -1.000000 -Nl RTR -Nw --- -Ma 0 -Md 0 -Ms 0 -Mt 0 -Is 3.0 -Id 2.0 -It cbr -Il 532 -If 1 -Ii 11 -Iv 30 -Pn cbr -Pi 5 -Pf 0 -Po 0 
s -t 1.500215000 -Hs 3 -Hd -2 -Ni 3 -Nx 0.00 -Ny 800.00 -Nz 100.00 -Ne -1.000000 -Nl MAC -Nw --- -Ma 14ee -Md 2 -Ms 3 -Mt 0 
s -t 1.500435000 -Hs 0 -Hd -2 -Ni 0 -Nx 0.00 -Ny 100.00 -Nz 100.00 -Ne -1.000000 -Nl MAC -Nw --- -Ma 14ee -Md 1 -Ms 0 -Mt 0 
r -t 1.500568000 -Hs 2 -Hd -2 -Ni 2 -Nx 300.00 -Ny 800.00 -Nz 100.00 -Ne -1.000000 -Nl MAC -Nw --- -Ma 14ee -Md 2 -Ms 3 -Mt 0 
s -t 1.500578000 -Hs 2 -Hd -2 -Ni 2 -Nx 300.00 -Ny 800.00 -Nz 100.00 -Ne -1.000000 -Nl MAC -Nw --- -Ma 13b4 -Md 3 -Ms 0 -Mt 0 
r -t 1.500788000 -Hs 1 -Hd -2 -Ni 1 -Nx 300.00 -Ny 100.00 -Nz 100.00 -Ne -1.000000 -Nl MAC -Nw --- -Ma 14ee -Md 1 -Ms 0 -Mt 0 
s -t 1.500798000 -Hs 1 -Hd -2 -Ni 1 -Nx 300.00 -Ny 100.00 -Nz 100.00 -Ne -1.000000 -Nl MAC -Nw --- -Ma 13b4 -Md 0 -Ms 0 -Mt 0 
r -t 1.500883000 -Hs 3 -Hd -2 -Ni 3 -Nx 0.00 -Ny 800.00 -Nz 100.00 -Ne -1.000000 -Nl MAC -Nw --- -Ma 13b4 -Md 3 -Ms 0 -Mt 0 