s -t 1.000000000 -Hs 0 -Hd -2 -Ni 0 -Nx 0.00 -Ny 200.00 -Nz 100.00 -Ne -1.000000 -Nl AGT -Nw --- -Ma 0 -Md 0 -Ms 0 -Mt 0 -Is 0.0 -Id 1.0 -It cbr -Il 512 -If 0 -Ii 0 -Iv 32 -Pn cbr -Pi 0 -Pf 0 -Po 0 
r -t 1.000000000 -Hs 0 -Hd -2 -Ni 0 -Nx 0.00 -Ny 200.00 -Nz 100.00 -Ne -1.000000 -Nl RTR -Nw --- -Ma 0 -Md 0 -Ms 0 -Mt 0 -Is 0.0 -Id 1.0 -It cbr -Il 512 -If 0 -Ii 0 -Iv 32 -Pn cbr -Pi 0 -Pf 0 -Po 0 
s -t 1.000000000 -Hs 0 -Hd -2 -Ni 0 -Nx 0.00 -Ny 200.00 -Nz 100.00 -Ne -1.000000 -Nl RTR -Nw --- -Ma 0 -Md 0 -Ms 0 -Mt 0 -Is 0.255 -Id -1.255 -It AODV -Il 48 -If 0 -Ii 0 -Iv 30 -P aodv -Pt 0x2 -Ph 1 -Pb 1 -Pd 1 -Pds 0 -Ps 0 -Pss 4 -Pc REQUEST 
s -t 1.000535000 -Hs 0 -Hd -2 -Ni 0 -Nx 0.00 -Ny 200.00 -Nz 100.00 -Ne -1.000000 -Nl MAC -Nw --- -Ma 0 -Md ffffffff -Ms 0 -Mt 800 -Is 0.255 -Id -1.255 -It AODV -Il 106 -If 0 -Ii 0 -Iv 30 -P aodv -Pt 0x2 -Ph 1 -Pb 1 -Pd 1 -Pds 0 -Ps 0 -Pss 4 -Pc REQUEST 
r -t 1.001384167 -Hs 1 -Hd -2 -Ni 1 -Nx 350.00 -Ny 200.00 -Nz 100.00 -Ne -1.000000 -Nl MAC -Nw --- -Ma 0 -Md ffffffff -Ms 0 -Mt 800 -Is 0.255 -Id -1.255 -It AODV -Il 48 -If 0 -Ii 0 -Iv 30 -P aodv -Pt 0x2 -Ph 1 -Pb 1 -Pd 1 -Pds 0 -Ps 0 -Pss 4 -Pc REQUEST 
r -t 1.001409167 -Hs 1 -Hd -2 -Ni 1 -Nx 350.00 -Ny 200.00 -Nz 100.00 -Ne -1.000000 -Nl RTR -Nw --- -Ma 0 -Md ffffffff -Ms 0 -Mt 800 -Is 0.255 -Id -1.255 -It AODV -Il 48 -If 0 -Ii 0 -Iv 30 -P aodv -Pt 0x2 -Ph 1 -Pb 1 -Pd 1 -Pds 0 -Ps 0 -Pss 4 -Pc REQUEST 
s -t 1.001409167 -Hs 1 -Hd 0 -Ni 1 -Nx 350.00 -Ny 200.00 -Nz 100.00 -Ne -1.000000 -Nl RTR -Nw --- -Ma 0 -Md 0 -Ms 0 -Mt 0 -Is 1.255 -Id 0.255 -It AODV -Il 44 -If 0 -Ii 0 -Iv 30 -P aodv -Pt 0x4 -Ph 1 -Pd 1 -Pds 4 -Pl 10.000000 -Pc REPLY 
s -t 1.002024167 -Hs 1 -Hd -2 -Ni 1 -Nx 350.00 -Ny 200.00 -Nz 100.00 -Ne -1.000000 -Nl MAC -Nw --- -Ma 0 -Md ffffffff -Ms 1 -Mt 806 -P arp -Po REQUEST -Pms 1 -Ps 1 -Pmd 0 -Pd 0 
r -t 1.002713333 -Hs 0 -Hd -2 -Ni 0 -Nx 0.00 -Ny 200.00 -Nz 100.00 -Ne -1.000000 -Nl MAC -Nw --- -Ma 0 -Md ffffffff -Ms 1 -Mt 806 -P arp -Po REQUEST -Pms 1 -Ps 1 -Pmd 0 -Pd 0 
s -t 1.003088333 -Hs 0 -Hd -2 -Ni 0 -Nx 0.00 -Ny 200.00 -Nz 100.00 -Ne -1.000000 -Nl MAC -Nw --- -Ma 52e -Md 1 -Ms 0 -Mt 0 
r -t 1.003441500 -Hs 1 -Hd -2 -Ni 1 -Nx 350.00 -Ny 200.00 -Nz 100.00 -Ne -1.000000 -Nl MAC -Nw --- -Ma 52e -Md 1 -Ms 0 -Mt 0 
s -t 1.003451500 -Hs 1 -Hd -2 -Ni 1 -Nx 350.00 -Ny 200.00 -Nz 100.00 -Ne -1.000000 -Nl MAC -Nw --- -Ma 3f4 -Md 0 -Ms 0 -Mt 0 
r -t 1.003756667 -Hs 0 -Hd -2 -Ni 0 -Nx 0.00 -Ny 200.00 -Nz 100.00 -Ne -1.000000 -Nl MAC -Nw --- -Ma 3f4 -Md 0 -Ms 0 -Mt 0 
s -t 1.003766667 -Hs 0 -Hd -2 -Ni 0 -Nx 0.00 -Ny 200.00 -Nz 100.00 -Ne -1.000000 -Nl MAC -Nw --- -Ma 13a -Md 1 -Ms 0 -Mt 806 -P arp -Po REPLY -Pms 0 -Ps 0 -Pmd 1 -Pd 1 
r -t 1.004455833 -Hs 1 -Hd -2 -Ni 1 -Nx 350.00 -Ny 200.00 -Nz 100.00 -Ne -1.000000 -Nl MAC -Nw --- -Ma 13a -Md 1 -Ms 0 -Mt 806 -P arp -Po REPLY -Pms 0 -Ps 0 -Pmd 1 -Pd 1 
s -t 1.004465833 -Hs 1 -Hd -2 -Ni 1 -Nx 350.00 -Ny 200.00 -Nz 100.00 -Ne -1.000000 -Nl MAC -Nw --- -Ma 0 -Md 0 -Ms 0 -Mt 0 
r -t 1.004771000 -Hs 0 -Hd -2 -Ni 0 -Nx 0.00 -Ny 200.00 -Nz 100.00 -Ne -1.000000 -Nl MAC -Nw --- -Ma 0 -Md 0 -Ms 0 -Mt 0 
s -t 1.004819833 -Hs 1 -Hd -2 -Ni 1 -Nx 350.00 -Ny 200.00 -Nz 100.00 -Ne -1.000000 -Nl MAC -Nw --- -Ma 5ae -Md 0 -Ms 1 -Mt 0 
r -t 1.005173000 -Hs 0 -Hd -2 -Ni 0 -Nx 0.00 -Ny 200.00 -Nz 100.00 -Ne -1.000000 -Nl MAC -Nw --- -Ma 5ae -Md 0 -Ms 1 -Mt 0 
s -t 1.005183000 -Hs 0 -Hd -2 -Ni 0 -Nx 0.00 -Ny 200.00 -Nz 100.00 -Ne -1.000000 -Nl MAC -Nw --- -Ma 474 -Md 1 -Ms 0 -Mt 0 
r -t 1.005488167 -Hs 1 -Hd -2 -Ni 1 -Nx 350.00 -Ny 200.00 -Nz 100.00 -Ne -1.000000 -Nl MAC -Nw --- -Ma 474 -Md 1 -Ms 0 -Mt 0 
s -t 1.005498167 -Hs 1 -Hd 0 -Ni 1 -Nx 350.00 -Ny 200.00 -Nz 100.00 -Ne -1.000000 -Nl MAC -Nw --- -Ma 13a -Md 0 -Ms 1 -Mt 800 -Is 1.255 -Id 0.255 -It AODV -Il 102 -If 0 -Ii 0 -Iv 30 -P aodv -Pt 0x4 -Ph 1 -Pd 1 -Pds 4 -Pl 10.000000 -Pc REPLY 
r -t 1.006315333 -Hs 0 -Hd 0 -Ni 0 -Nx 0.00 -Ny 200.00 -Nz 100.00 -Ne -1.000000 -Nl MAC -Nw --- -Ma 13a -Md 0 -Ms 1 -Mt 800 -Is 1.255 -Id 0.255 -It AODV -Il 44 -If 0 -Ii 0 -Iv 30 -P aodv -Pt 0x4 -Ph 1 -Pd 1 -Pds 4 -Pl 10.000000 -Pc REPLY 
s -t 1.006325333 -Hs 0 -Hd -2 -Ni 0 -Nx 0.00 -Ny 200.00 -Nz 100.00 -Ne -1.000000 -Nl MAC -Nw --- -Ma 0 -Md 1 -Ms 0 -Mt 0 
r -t 1.006340333 -Hs 0 -Hd 0 -Ni 0 -Nx 0.00 -Ny 200.00 -Nz 100.00 -Ne -1.000000 -Nl RTR -Nw --- -Ma 13a -Md 0 -Ms 1 -Mt 800 -Is 1.255 -Id 0.255 -It AODV -Il 44 -If 0 -Ii 0 -Iv 30 -P aodv -Pt 0x4 -Ph 1 -Pd 1 -Pds 4 -Pl 10.000000 -Pc REPLY 
s -t 1.006340333 -Hs 0 -Hd 1 -Ni 0 -Nx 0.00 -Ny 200.00 -Nz 100.00 -Ne -1.000000 -Nl RTR -Nw --- -Ma 0 -Md 0 -Ms 0 -Mt 0 -Is 0.0 -Id 1.0 -It cbr -Il 532 -If 0 -Ii 0 -Iv 30 -Pn cbr -Pi 0 -Pf 0 -Po 0 
r -t 1.006630500 -Hs 1 -Hd -2 -Ni 1 -Nx 350.00 -Ny 200.00 -Nz 100.00 -Ne -1.000000 -Nl MAC -Nw --- -Ma 0 -Md 1 -Ms 0 -Mt 0 
s -t 1.006839333 -Hs 0 -Hd -2 -Ni 0 -Nx 0.00 -Ny 200.00 -Nz 100.00 -Ne -1.000000 -Nl MAC -Nw --- -Ma 14ee -Md 1 -Ms 0 -Mt 0 
r -t 1.007192500 -Hs 1 -Hd -2 -Ni 1 -Nx 350.00 -Ny 200.00 -Nz 100.00 -Ne -1.000000 -Nl MAC -Nw --- -Ma 14ee -Md 1 -Ms 0 -Mt 0 
s -t 1.007202500 -Hs 1 -Hd -2 -Ni 1 -Nx 350.00 -Ny 200.00 -Nz 100.00 -Ne -1.000000 -Nl MAC -Nw --- -Ma 13b4 -Md 0 -Ms 0 -Mt 0 
r -t 1.007507667 -Hs 0 -Hd -2 -Ni 0 -Nx 0.00 -Ny 200.00 -Nz 100.00 -Ne -1.000000 -Nl MAC -Nw --- -Ma 13b4 -Md 0 -Ms 0 -Mt 0 
s -t 1.007517667 -Hs 0 -Hd 1 -Ni 0 -Nx 0.00 -Ny 200.00 -Nz 100.00 -Ne -1.000000 -Nl MAC -Nw --- -Ma 13a -Md 1 -Ms 0 -Mt 800 -Is 0.0 -Id 1.0 -It cbr -Il 590 -If 0 -Ii 0 -Iv 30 -Pn cbr -Pi 0 -Pf 0 -Po 0 
r -t 1.012238833 -Hs 1 -Hd 1 -Ni 1 -Nx 350.00 -Ny 200.00 -Nz 100.00 -Ne -1.000000 -Nl MAC -Nw --- -Ma 13a -Md 1 -Ms 0 -Mt 800 -Is 0.0 -Id 1.0 -It cbr -Il 532 -If 0 -Ii 0 -Iv 30 -Pn cbr -Pi 0 -Pf 1 -Po 0 
s -t 1.012248833 -Hs 1 -Hd -2 -Ni 1 -Nx 350.00 -Ny 200.00 -Nz 100.00 -Ne -1.000000 -Nl MAC -Nw --- -Ma 0 -Md 0 -Ms 0 -Mt 0 
r -t 1.012263833 -Hs 1 -Hd 1 -Ni 1 -Nx 350.00 -Ny 200.00 -Nz 100.00 -Ne -1.000000 -Nl AGT -Nw --- -Ma 13a -Md 1 -Ms 0 -Mt 800 -Is 0.0 -Id 1.0 -It cbr -Il 532 -If 0 -Ii 0 -Iv 30 -Pn cbr -Pi 0 -Pf 1 -Po 0 
r -t 1.012554000 -Hs 0 -Hd -2 -Ni 0 -Nx 0.00 -Ny 200.00 -Nz 100.00 -Ne -1.000000 -Nl MAC -Nw --- -Ma 0 -Md 0 -Ms 0 -Mt 0 
s -t 1.100000000 -Hs 0 -Hd -2 -Ni 0 -Nx 0.00 -Ny 200.00 -Nz 100.00 -Ne -1.000000 -Nl AGT -Nw --- -Ma 0 -Md 0 -Ms 0 -Mt 0 -Is 0.0 -Id 1.0 -It cbr -Il 512 -If 0 -Ii 1 -Iv 32 -Pn cbr -Pi 1 -Pf 0 -Po 0 
r -t 1.100000000 -Hs 0 -Hd -2 -Ni 0 -Nx 0.00 -Ny 200.00 -Nz 100.00 -Ne -1.000000 -Nl RTR -Nw --- -Ma 0 -Md 0 -Ms 0 -Mt 0 -Is 0.0 -Id 1.0 -It cbr -Il 512 -If 0 -Ii 1 -Iv 32 -Pn cbr -Pi 1 -Pf 0 -Po 0 
s -t 1.100000000 -Hs 0 -Hd 1 -Ni 0 -Nx 0.00 -Ny 200.00 -Nz 100.00 -Ne -1.000000 -Nl RTR -Nw --- -Ma 0 -Md 0 -Ms 0 -Mt 0 -Is 0.0 -Id 1.0 -It cbr -Il 532 -If 0 -Ii 1 -Iv 30 -Pn cbr -Pi 1 -Pf 0 -Po 0 
s -t 1.100435000 -Hs 0 -Hd -2 -Ni 0 -Nx 0.00 -Ny 200.00 -Nz 100.00 -Ne -1.000000 -Nl MAC -Nw --- -Ma 14ee -Md 1 -Ms 0 -Mt 0 
r -t 1.100788167 -Hs 1 -Hd -2 -Ni 1 -Nx 350.00 -Ny 200.00 -Nz 100.00 -Ne -1.000000 -Nl MAC -Nw --- -Ma 14ee -Md 1 -Ms 0 -Mt 0 
s -t 1.100798167 -Hs 1 -Hd -2 -Ni 1 -Nx 350.00 -Ny 200.00 -Nz 100.00 -Ne -1.000000 -Nl MAC -Nw --- -Ma 13b4 -Md 0 -Ms 0 -Mt 0 
r -t 1.101103333 -Hs 0 -Hd -2 -Ni 0 -Nx 0.00 -Ny 200.00 -Nz 100.00 -Ne -1.000000 -Nl MAC -Nw --- -Ma 13b4 -Md 0 -Ms 0 -Mt 0 
s -t 1.101113333 -Hs 0 -Hd 1 -Ni 0 -Nx 0.00 -Ny 200.00 -Nz 100.00 -Ne -1.000000 -Nl MAC -Nw --- -Ma 13a -Md 1 -Ms 0 -Mt 800 -Is 0.0 -Id 1.0 -It cbr -Il 590 -If 0 -Ii 1 -Iv 30 -Pn cbr -Pi 1 -Pf 0 -Po 0 
r -t 1.105834500 -Hs 1 -Hd 1 -Ni 1 -Nx 350.00 -Ny 200.00 -Nz 100.00 -Ne -1.000000 -Nl MAC -Nw --- -Ma 13a -Md 1 -Ms 0 -Mt 800 -Is 0.0 -Id 1.0 -It cbr -Il 532 -If 0 -Ii 1 -Iv 30 -Pn cbr -Pi 1 -Pf 1 -Po 0 
s -t 1.105844500 -Hs 1 -Hd -2 -Ni 1 -Nx 350.00 -Ny 200.00 -Nz 100.00 -Ne -1.000000 -Nl MAC -Nw --- -Ma 0 -Md 0 -Ms 0 -Mt 0 
r -t 1.105859500 -Hs 1 -Hd 1 -Ni 1 -Nx 350.00 -Ny 200.00 -Nz 100.00 -Ne -1.000000 -Nl AGT -Nw --- -Ma 13a -Md 1 -Ms 0 -Mt 800 -Is 0.0 -Id 1.0 -It cbr -Il 532 -If 0 -Ii 1 -Iv 30 -Pn cbr -Pi 1 -Pf 1 -Po 0 
r -t 1.106149667 -Hs 0 -Hd -2 -Ni 0 -Nx 0.00 -Ny 200.00 -Nz 100.00 -Ne -1.000000 -Nl MAC -Nw --- -Ma 0 -Md 0 -Ms 0 -Mt 0 
s -t 1.200000000 -Hs 0 -Hd -2 -Ni 0 -Nx 0.00 -Ny 200.00 -Nz 100.00 -Ne -1.000000 -Nl AGT -Nw --- -Ma 0 -Md 0 -Ms 0 -Mt 0 -Is 0.0 -Id 1.0 -It cbr -Il 512 -If 0 -Ii 2 -Iv 32 -Pn cbr -Pi 2 -Pf 0 -Po 0 
r -t 1.200000000 -Hs 0 -Hd -2 -Ni 0 -Nx 0.00 -Ny 200.00 -Nz 100.00 -Ne -1.000000 -Nl RTR -Nw --- -Ma 0 -Md 0 -Ms 0 -Mt 0 -Is 0.0 -Id 1.0 -It cbr -Il 512 -If 0 -Ii 2 -Iv 32 -Pn cbr -Pi 2 -Pf 0 -Po 0 
s -t 1.200000000 -Hs 0 -Hd 1 -Ni 0 -Nx 0.00 -Ny 200.00 -Nz 100.00 -Ne -1.000000 -Nl RTR -Nw --- -Ma 0 -Md 0 -Ms 0 -Mt 0 -Is 0.0 -Id 1.0 -It cbr -Il 532 -If 0 -Ii 2 -Iv 30 -Pn cbr -Pi 2 -Pf 0 -Po 0 
s -t 1.200315000 -Hs 0 -Hd -2 -Ni 0 -Nx 0.00 -Ny 200.00 -Nz 100.00 -Ne -1.000000 -Nl MAC -Nw --- -Ma 14ee -Md 1 -Ms 0 -Mt 0 
r -t 1.200668167 -Hs 1 -Hd -2 -Ni 1 -Nx 350.00 -Ny 200.00 -Nz 100.00 -Ne -1.000000 -Nl MAC -Nw --- -Ma 14ee -Md 1 -Ms 0 -Mt 0 
s -t 1.200678167 -Hs 1 -Hd -2 -Ni 1 -Nx 350.00 -Ny 200.00 -Nz 100.00 -Ne -1.000000 -Nl MAC -Nw --- -Ma 13b4 -Md 0 -Ms 0 -Mt 0 
r -t 1.200983333 -Hs 0 -Hd -2 -Ni 0 -Nx 0.00 -Ny 200.00 -Nz 100.00 -Ne -1.000000 -Nl MAC -Nw --- -Ma 13b4 -Md 0 -Ms 0 -Mt 0 
s -t 1.200993333 -Hs 0 -Hd 1 -Ni 0 -Nx 0.00 -Ny 200.00 -Nz 100.00 -Ne -1.000000 -Nl MAC -Nw --- -Ma 13a -Md 1 -Ms 0 -Mt 800 -Is 0.0 -Id 1.0 -It cbr -Il 590 -If 0 -Ii 2 -Iv 30 -Pn cbr -Pi 2 -Pf 0 -Po 0 
r -t 1.205714500 -Hs 1 -Hd 1 -Ni 1 -Nx 350.00 -Ny 200.00 -Nz 100.00 -Ne -1.000000 -Nl MAC -Nw --- -Ma 13a -Md 1 -Ms 0 -Mt 800 -Is 0.0 -Id 1.0 -It cbr -Il 532 -If 0 -Ii 2 -Iv 30 -Pn cbr -Pi 2 -Pf 1 -Po 0 
s -t 1.205724500 -Hs 1 -Hd -2 -Ni 1 -Nx 350.00 -Ny 200.00 -Nz 100.00 -Ne -1.000000 -Nl MAC -Nw --- -Ma 0 -Md 0 -Ms 0 -Mt 0 
r -t 1.205739500 -Hs 1 -Hd 1 -Ni 1 -Nx 350.00 -Ny 200.00 -Nz 100.00 -Ne -1.000000 -Nl AGT -Nw --- -Ma 13a -Md 1 -Ms 0 -Mt 800 -Is 0.0 -Id 1.0 -It cbr -Il 532 -If 0 -Ii 2 -Iv 30 -Pn cbr -Pi 2 -Pf 1 -Po 0 
r -t 1.206029667 -Hs 0 -Hd -2 -Ni 0 -Nx 0.00 -Ny 200.00 -Nz 100.00 -Ne -1.000000 -Nl MAC -Nw --- -Ma 0 -Md 0 -Ms 0 -Mt 0 
s -t 1.300000000 -Hs 0 -Hd -2 -Ni 0 -Nx 0.00 -Ny 200.00 -Nz 100.00 -Ne -1.000000 -Nl AGT -Nw --- -Ma 0 -Md 0 -Ms 0 -Mt 0 -Is 0.0 -Id 1.0 -It cbr -Il 512 -If 0 -Ii 3 -Iv 32 -Pn cbr -Pi 3 -Pf 0 -Po 0 
r -t 1.300000000 -Hs 0 -Hd -2 -Ni 0 -Nx 0.00 -Ny 200.00 -Nz 100.00 -Ne -1.000000 -Nl RTR -Nw --- -Ma 0 -Md 0 -Ms 0 -Mt 0 -Is 0.0 -Id 1.0 -It cbr -Il 512 -If 0 -Ii 3 -Iv 32 -Pn cbr -Pi 3 -Pf 0 -Po 0 
s -t 1.300000000 -Hs 0 -Hd 1 -Ni 0 -Nx 0.00 -Ny 200.00 -Nz 100.00 -Ne -1.000000 -Nl RTR -Nw --- -Ma 0 -Md 0 -Ms 0 -Mt 0 -Is 0.0 -Id 1.0 -It cbr -Il 532 -If 0 -Ii 3 -Iv 30 -Pn cbr -Pi 3 -Pf 0 -Po 0 
s -t 1.300615000 -Hs 0 -Hd -2 -Ni 0 -Nx 0.00 -Ny 200.00 -Nz 100.00 -Ne -1.000000 -Nl MAC -Nw --- -Ma 14ee -Md 1 -Ms 0 -Mt 0 
r -t 1.300968167 -Hs 1 -Hd -2 -Ni 1 -Nx 350.00 -Ny 200.00 -Nz 100.00 -Ne -1.000000 -Nl MAC -Nw --- -Ma 14ee -Md 1 -Ms 0 -Mt 0 
s -t 1.300978167 -Hs 1 -Hd -2 -Ni 1 -Nx 350.00 -Ny 200.00 -Nz 100.00 -Ne -1.000000 -Nl MAC -Nw --- -Ma 13b4 -Md 0 -Ms 0 -Mt 0 
r -t 1.301283333 -Hs 0 -Hd -2 -Ni 0 -Nx 0.00 -Ny 200.00 -Nz 100.00 -Ne -1.000000 -Nl MAC -Nw --- -Ma 13b4 -Md 0 -Ms 0 -Mt 0 
s -t 1.301293333 -Hs 0 -Hd 1 -Ni 0 -Nx 0.00 -Ny 200.00 -Nz 100.00 -Ne -1.000000 -Nl MAC -Nw --- -Ma 13a -Md 1 -Ms 0 -Mt 800 -Is 0.0 -Id 1.0 -It cbr -Il 590 -If 0 -Ii 3 -Iv 30 -Pn cbr -Pi 3 -Pf 0 -Po 0 
r -t 1.306014500 -Hs 1 -Hd 1 -Ni 1 -Nx 350.00 -Ny 200.00 -Nz 100.00 -Ne -1.000000 -Nl MAC -Nw --- -Ma 13a -Md 1 -Ms 0 -Mt 800 -Is 0.0 -Id 1.0 -It cbr -Il 532 -If 0 -Ii 3 -Iv 30 -Pn cbr -Pi 3 -Pf 1 -Po 0 
s -t 1.306024500 -Hs 1 -Hd -2 -Ni 1 -Nx 350.00 -Ny 200.00 -Nz 100.00 -Ne -1.000000 -Nl MAC -Nw --- -Ma 0 -Md 0 -Ms 0 -Mt 0 
r -t 1.306039500 -Hs 1 -Hd 1 -Ni 1 -Nx 350.00 -Ny 200.00 -Nz 100.00 -Ne -1.000000 -Nl AGT -Nw --- -Ma 13a -Md 1 -Ms 0 -Mt 800 -Is 0.0 -Id 1.0 -It cbr -Il 532 -If 0 -Ii 3 -Iv 30 -Pn cbr -Pi 3 -Pf 1 -Po 0 
r -t 1.306329667 -Hs 0 -Hd -2 -Ni 0 -Nx 0.00 -Ny 200.00 -Nz 100.00 -Ne -1.000000 -Nl MAC -Nw --- -Ma 0 -Md 0 -Ms 0 -Mt 0 
s -t 1.400000000 -Hs 0 -Hd -2 -Ni 0 -Nx 0.00 -Ny 200.00 -Nz 100.00 -Ne -1.000000 -Nl AGT -Nw --- -Ma 0 -Md 0 -Ms 0 -Mt 0 -Is 0.0 -Id 1.0 -It cbr -Il 512 -If 0 -Ii 4 -Iv 32 -Pn cbr -Pi 4 -Pf 0 -Po 0 
r -t 1.400000000 -Hs 0 -Hd -2 -Ni 0 -Nx 0.00 -Ny 200.00 -Nz 100.00 -Ne -1.000000 -Nl RTR -Nw --- -Ma 0 -Md 0 -Ms 0 -Mt 0 -Is 0.0 -Id 1.0 -It cbr -Il 512 -If 0 -Ii 4 -Iv 32 -Pn cbr -Pi 4 -Pf 0 -Po 0 
s -t 1.400000000 -Hs 0 -Hd 1 -Ni 0 -Nx 0.00 -Ny 200.00 -Nz 100.00 -Ne -1.000000 -Nl RTR -Nw --- -Ma 0 -Md 0 -Ms 0 -Mt 0 -Is 0.0 -Id 1.0 -It cbr -Il 532 -If 0 -Ii 4 -Iv 30 -Pn cbr -Pi 4 -Pf 0 -Po 0 
s -t 1.400435000 -Hs 0 -Hd -2 -Ni 0 -Nx 0.00 -Ny 200.00 -Nz 100.00 -Ne -1.000000 -Nl MAC -Nw --- -Ma 14ee -Md 1 -Ms 0 -Mt 0 
r -t 1.400788167 -Hs 1 -Hd -2 -Ni 1 -Nx 350.00 -Ny 200.00 -Nz 100.00 -Ne -1.000000 -Nl MAC -Nw --- -Ma 14ee -Md 1 -Ms 0 -Mt 0 
s -t 1.400798167 -Hs 1 -Hd -2 -Ni 1 -Nx 350.00 -Ny 200.00 -Nz 100.00 -Ne -1.000000 -Nl MAC -Nw --- -Ma 13b4 -Md 0 -Ms 0 -Mt 0 
r -t 1.401103333 -Hs 0 -Hd -2 -Ni 0 -Nx 0.00 -Ny 200.00 -Nz 100.00 -Ne -1.000000 -Nl MAC -Nw --- -Ma 13b4 -Md 0 -Ms 0 -Mt 0 
s -t 1.401113333 -Hs 0 -Hd 1 -Ni 0 -Nx 0.00 -Ny 200.00 -Nz 100.00 -Ne -1.000000 -Nl MAC -Nw --- -Ma 13a -Md 1 -Ms 0 -Mt 800 -Is 0.0 -Id 1.0 -It cbr -Il 590 -If 0 -Ii 4 -Iv 30 -Pn cbr -Pi 4 -Pf 0 -Po 0 
r -t 1.405834500 -Hs 1 -Hd 1 -Ni 1 -Nx 350.00 -Ny 200.00 -Nz 100.00 -Ne -1.000000 -Nl MAC -Nw --- -Ma 13a -Md 1 -Ms 0 -Mt 800 -Is 0.0 -Id 1.0 -It cbr -Il 532 -If 0 -Ii 4 -Iv 30 -Pn cbr -Pi 4 -Pf 1 -Po 0 
s -t 1.405844500 -Hs 1 -Hd -2 -Ni 1 -Nx 350.00 -Ny 200.00 -Nz 100.00 -Ne -1.000000 -Nl MAC -Nw --- -Ma 0 -Md 0 -Ms 0 -Mt 0 
r -t 1.405859500 -Hs 1 -Hd 1 -Ni 1 -Nx 350.00 -Ny 200.00 -Nz 100.00 -Ne -1.000000 -Nl AGT -Nw --- -Ma 13a -Md 1 -Ms 0 -Mt 800 -Is 0.0 -Id 1.0 -It cbr -Il 532 -If 0 -Ii 4 -Iv 30 -Pn cbr -Pi 4 -Pf 1 -Po 0 
r -t 1.406149667 -Hs 0 -Hd -2 -Ni 0 -Nx 0.00 -Ny 200.00 -Nz 100.00 -Ne -1.000000 -Nl MAC -Nw --- -Ma 0 -Md 0 -Ms 0 -Mt 0 
s -t 1.500000000 -Hs 0 -Hd -2 -Ni 0 -Nx 0.00 -Ny 200.00 -Nz 100.00 -Ne -1.000000 -Nl AGT -Nw --- -Ma 0 -Md 0 -Ms 0 -Mt 0 -Is 0.0 -Id 1.0 -It cbr -Il 512 -If 0 -Ii 5 -Iv 32 -Pn cbr -Pi 5 -Pf 0 -Po 0 
r -t 1.500000000 -Hs 0 -Hd -2 -Ni 0 -Nx 0.00 -Ny 200.00 -Nz 100.00 -Ne -1.000000 -Nl RTR -Nw --- -Ma 0 -Md 0 -Ms 0 -Mt 0 -Is 0.0 -Id 1.0 -It cbr -Il 512 -If 0 -Ii 5 -Iv 32 -Pn cbr -Pi 5 -Pf 0 -Po 0 
s -t 1.500000000 -Hs 0 -Hd 1 -Ni 0 -Nx 0.00 -Ny 200.00 -Nz 100.00 -Ne -1.000000 -Nl RTR -Nw --- -Ma 0 -Md 0 -Ms 0 -Mt 0 -Is 0.0 -Id 1.0 -It cbr -Il 532 -If 0 -Ii 5 -Iv 30 -Pn cbr -Pi 5 -Pf 0 -Po 0 
s -t 1.500235000 -Hs 0 -Hd -2 -Ni 0 -Nx 0.00 -Ny 200.00 -Nz 100.00 -Ne -1.000000 -Nl MAC -Nw --- -Ma 14ee -Md 1 -Ms 0 -Mt 0 
r -t 1.500588167 -Hs 1 -Hd -2 -Ni 1 -Nx 350.00 -Ny 200.00 -Nz 100.00 -Ne -1.000000 -Nl MAC -Nw --- -Ma 14ee -Md 1 -Ms 0 -Mt 0 
s -t 1.500598167 -Hs 1 -Hd -2 -Ni 1 -Nx 350.00 -Ny 200.00 -Nz 100.00 -Ne -1.000000 -Nl MAC -Nw --- -Ma 13b4 -Md 0 -Ms 0 -Mt 0 
r -t 1.500903333 -Hs 0 -Hd -2 -Ni 0 -Nx 0.00 -Ny 200.00 -Nz 100.00 -Ne -1.000000 -Nl MAC -Nw --- -Ma 13b4 -Md 0 -Ms 0 -Mt 0 
s -t 1.500913333 -Hs 0 -Hd 1 -Ni 0 -Nx 0.00 -Ny 200.00 -Nz 100.00 -Ne -1.000000 -Nl MAC -Nw --- -Ma 13a -Md 1 -Ms 0 -Mt 800 -Is 0.0 -Id 1.0 -It cbr -Il 590 -If 0 -Ii 5 -Iv 30 -Pn cbr -Pi 5 -Pf 0 -Po 0 
r -t 1.505634500 -Hs 1 -Hd 1 -Ni 1 -Nx 350.00 -Ny 200.00 -Nz 100.00 -Ne -1.000000 -Nl MAC -Nw --- -Ma 13a -Md 1 -Ms 0 -Mt 800 -Is 0.0 -Id 1.0 -It cbr -Il 532 -If 0 -Ii 5 -Iv 30 -Pn cbr -Pi 5 -Pf 1 -Po 0 
s -t 1.505644500 -Hs 1 -Hd -2 -Ni 1 -Nx 350.00 -Ny 200.00 -Nz 100.00 -Ne -1.000000 -Nl MAC -Nw --- -Ma 0 -Md 0 -Ms 0 -Mt 0 
r -t 1.505659500 -Hs 1 -Hd 1 -Ni 1 -Nx 350.00 -Ny 200.00 -Nz 100.00 -Ne -1.000000 -Nl AGT -Nw --- -Ma 13a -Md 1 -Ms 0 -Mt 800 -Is 0.0 -Id 1.0 -It cbr -Il 532 -If 0 -Ii 5 -Iv 30 -Pn cbr -Pi 5 -Pf 1 -Po 0 
r -t 1.505949667 -Hs 0 -Hd -2 -Ni 0 -Nx 0.00 -Ny 200.00 -Nz 100.00 -Ne -1.000000 -Nl MAC -Nw --- -Ma 0 -Md 0 -Ms 0 -Mt 0 
s -t 1.600000000 -Hs 0 -Hd -2 -Ni 0 -Nx 0.00 -Ny 200.00 -Nz 100.00 -Ne -1.000000 -Nl AGT -Nw --- -Ma 0 -Md 0 -Ms 0 -Mt 0 -Is 0.0 -Id 1.0 -It cbr -Il 512 -If 0 -Ii 6 -Iv 32 -Pn cbr -Pi 6 -Pf 0 -Po 0 
r -t 1.600000000 -Hs 0 -Hd -2 -Ni 0 -Nx 0.00 -Ny 200.00 -Nz 100.00 -Ne -1.000000 -Nl RTR -Nw --- -Ma 0 -Md 0 -Ms 0 -Mt 0 -Is 0.0 -Id 1.0 -It cbr -Il 512 -If 0 -Ii 6 -Iv 32 -Pn cbr -Pi 6 -Pf 0 -Po 0 
s -t 1.600000000 -Hs 0 -Hd 1 -Ni 0 -Nx 0.00 -Ny 200.00 -Nz 100.00 -Ne -1.000000 -Nl RTR -Nw --- -Ma 0 -Md 0 -Ms 0 -Mt 0 -Is 0.0 -Id 1.0 -It cbr -Il 532 -If 0 -Ii 6 -Iv 30 -Pn cbr -Pi 6 -Pf 0 -Po 0 
s -t 1.600415000 -Hs 0 -Hd -2 -Ni 0 -Nx 0.00 -Ny 200.00 -Nz 100.00 -Ne -1.000000 -Nl MAC -Nw --- -Ma 14ee -Md 1 -Ms 0 -Mt 0 
r -t 1.600768167 -Hs 1 -Hd -2 -Ni 1 -Nx 350.00 -Ny 200.00 -Nz 100.00 -Ne -1.000000 -Nl MAC -Nw --- -Ma 14ee -Md 1 -Ms 0 -Mt 0 
s -t 1.600778167 -Hs 1 -Hd -2 -Ni 1 -Nx 350.00 -Ny 200.00 -Nz 100.00 -Ne -1.000000 -Nl MAC -Nw --- -Ma 13b4 -Md 0 -Ms 0 -Mt 0 
r -t 1.601083333 -Hs 0 -Hd -2 -Ni 0 -Nx 0.00 -Ny 200.00 -Nz 100.00 -Ne -1.000000 -Nl MAC -Nw --- -Ma 13b4 -Md 0 -Ms 0 -Mt 0 
s -t 1.601093333 -Hs 0 -Hd 1 -Ni 0 -Nx 0.00 -Ny 200.00 -Nz 100.00 -Ne -1.000000 -Nl MAC -Nw --- -Ma 13a -Md 1 -Ms 0 -Mt 800 -Is 0.0 -Id 1.0 -It cbr -Il 590 -If 0 -Ii 6 -Iv 30 -Pn cbr -Pi 6 -Pf 0 -Po 0 
r -t 1.605814500 -Hs 1 -Hd 1 -Ni 1 -Nx 350.00 -Ny 200.00 -Nz 100.00 -Ne -1.000000 -Nl MAC -Nw --- -Ma 13a -Md 1 -Ms 0 -Mt 800 -Is 0.0 -Id 1.0 -It cbr -Il 532 -If 0 -Ii 6 -Iv 30 -Pn cbr -Pi 6 -Pf 1 -Po 0 
s -t 1.605824500 -Hs 1 -Hd -2 -Ni 1 -Nx 350.00 -Ny 200.00 -Nz 100.00 -Ne -1.000000 -Nl MAC -Nw --- -Ma 0 -Md 0 -Ms 0 -Mt 0 
r -t 1.605839500 -Hs 1 -Hd 1 -Ni 1 -Nx 350.00 -Ny 200.00 -Nz 100.00 -Ne -1.000000 -Nl AGT -Nw --- -Ma 13a -Md 1 -Ms 0 -Mt 800 -Is 0.0 -Id 1.0 -It cbr -Il 532 -If 0 -Ii 6 -Iv 30 -Pn cbr -Pi 6 -Pf 1 -Po 0 
r -t 1.606129667 -Hs 0 -Hd -2 -Ni 0 -Nx 0.00 -Ny 200.00 -Nz 100.00 -Ne -1.000000 -Nl MAC -Nw --- -Ma 0 -Md 0 -Ms 0 -Mt 0 
s -t 1.700000000 -Hs 0 -Hd -2 -Ni 0 -Nx 0.00 -Ny 200.00 -Nz 100.00 -Ne -1.000000 -Nl AGT -Nw --- -Ma 0 -Md 0 -Ms 0 -Mt 0 -Is 0.0 -Id 1.0 -It cbr -Il 512 -If 0 -Ii 7 -Iv 32 -Pn cbr -Pi 7 -Pf 0 -Po 0 
r -t 1.700000000 -Hs 0 -Hd -2 -Ni 0 -Nx 0.00 -Ny 200.00 -Nz 100.00 -Ne -1.000000 -Nl RTR -Nw --- -Ma 0 -Md 0 -Ms 0 -Mt 0 -Is 0.0 -Id 1.0 -It cbr -Il 512 -If 0 -Ii 7 -Iv 32 -Pn cbr -Pi 7 -Pf 0 -Po 0 
s -t 1.700000000 -Hs 0 -Hd 1 -Ni 0 -Nx 0.00 -Ny 200.00 -Nz 100.00 -Ne -1.000000 -Nl RTR -Nw --- -Ma 0 -Md 0 -Ms 0 -Mt 0 -Is 0.0 -Id 1.0 -It cbr -Il 532 -If 0 -Ii 7 -Iv 30 -Pn cbr -Pi 7 -Pf 0 -Po 0 
s -t 1.700275000 -Hs 0 -Hd -2 -Ni 0 -Nx 0.00 -Ny 200.00 -Nz 100.00 -Ne -1.000000 -Nl MAC -Nw --- -Ma 14ee -Md 1 -Ms 0 -Mt 0 
r -t 1.700628167 -Hs 1 -Hd -2 -Ni 1 -Nx 350.00 -Ny 200.00 -Nz 100.00 -Ne -1.000000 -Nl MAC -Nw --- -Ma 14ee -Md 1 -Ms 0 -Mt 0 
s -t 1.700638167 -Hs 1 -Hd -2 -Ni 1 -Nx 350.00 -Ny 200.00 -Nz 100.00 -Ne -1.000000 -Nl MAC -Nw --- -Ma 13b4 -Md 0 -Ms 0 -Mt 0 
r -t 1.700943333 -Hs 0 -Hd -2 -Ni 0 -Nx 0.00 -Ny 200.00 -Nz 100.00 -Ne -1.000000 -Nl MAC -Nw --- -Ma 13b4 -Md 0 -Ms 0 -Mt 0 
s -t 1.700953333 -Hs 0 -Hd 1 -Ni 0 -Nx 0.00 -Ny 200.00 -Nz 100.00 -Ne -1.000000 -Nl MAC -Nw --- -Ma 13a -Md 1 -Ms 0 -Mt 800 -Is 0.0 -Id 1.0 -It cbr -Il 590 -If 0 -Ii 7 -Iv 30 -Pn cbr -Pi 7 -Pf 0 -Po 0 
r -t 1.705674500 -Hs 1 -Hd 1 -Ni 1 -Nx 350.00 -Ny 200.00 -Nz 100.00 -Ne -1.000000 -Nl MAC -Nw --- -Ma 13a -Md 1 -Ms 0 -Mt 800 -Is 0.0 -Id 1.0 -It cbr -Il 532 -If 0 -Ii 7 -Iv 30 -Pn cbr -Pi 7 -Pf 1 -Po 0 
s -t 1.705684500 -Hs 1 -Hd -2 -Ni 1 -Nx 350.00 -Ny 200.00 -Nz 100.00 -Ne -1.000000 -Nl MAC -Nw --- -Ma 0 -Md 0 -Ms 0 -Mt 0 
r -t 1.705699500 -Hs 1 -Hd 1 -Ni 1 -Nx 350.00 -Ny 200.00 -Nz 100.00 -Ne -1.000000 -Nl AGT -Nw --- -Ma 13a -Md 1 -Ms 0 -Mt 800 -Is 0.0 -Id 1.0 -It cbr -Il 532 -If 0 -Ii 7 -Iv 30 -Pn cbr -Pi 7 -Pf 1 -Po 0 
r -t 1.705989667 -Hs 0 -Hd -2 -Ni 0 -Nx 0.00 -Ny 200.00 -Nz 100.00 -Ne -1.000000 -Nl MAC -Nw --- -Ma 0 -Md 0 -Ms 0 -Mt 0 
s -t 1.800000000 -Hs 0 -Hd -2 -Ni 0 -Nx 0.00 -Ny 200.00 -Nz 100.00 -Ne -1.000000 -Nl AGT -Nw --- -Ma 0 -Md 0 -Ms 0 -Mt 0 -Is 0.0 -Id 1.0 -It cbr -Il 512 -If 0 -Ii 8 -Iv 32 -Pn cbr -Pi 8 -Pf 0 -Po 0 
r -t 1.800000000 -Hs 0 -Hd -2 -Ni 0 -Nx 0.00 -Ny 200.00 -Nz 100.00 -Ne -1.000000 -Nl RTR -Nw --- -Ma 0 -Md 0 -Ms 0 -Mt 0 -Is 0.0 -Id 1.0 -It cbr -Il 512 -If 0 -Ii 8 -Iv 32 -Pn cbr -Pi 8 -Pf 0 -Po 0 
s -t 1.800000000 -Hs 0 -Hd 1 -Ni 0 -Nx 0.00 -Ny 200.00 -Nz 100.00 -Ne -1.000000 -Nl RTR -Nw --- -Ma 0 -Md 0 -Ms 0 -Mt 0 -Is 0.0 -Id 1.0 -It cbr -Il 532 -If 0 -Ii 8 -Iv 30 -Pn cbr -Pi 8 -Pf 0 -Po 0 
s -t 1.800095000 -Hs 0 -Hd -2 -Ni 0 -Nx 0.00 -Ny 200.00 -Nz 100.00 -Ne -1.000000 -Nl MAC -Nw --- -Ma 14ee -Md 1 -Ms 0 -Mt 0 
r -t 1.800448167 -Hs 1 -Hd -2 -Ni 1 -Nx 350.00 -Ny 200.00 -Nz 100.00 -Ne -1.000000 -Nl MAC -Nw --- -Ma 14ee -Md 1 -Ms 0 -Mt 0 
s -t 1.800458167 -Hs 1 -Hd -2 -Ni 1 -Nx 350.00 -Ny 200.00 -Nz 100.00 -Ne -1.000000 -Nl MAC -Nw --- -Ma 13b4 -Md 0 -Ms 0 -Mt 0 
r -t 1.800763333 -Hs 0 -Hd -2 -Ni 0 -Nx 0.00 -Ny 200.00 -Nz 100.00 -Ne -1.000000 -Nl MAC -Nw --- -Ma 13b4 -Md 0 -Ms 0 -Mt 0 
s -t 1.800773333 -Hs 0 -Hd 1 -Ni 0 -Nx 0.00 -Ny 200.00 -Nz 100.00 -Ne -1.000000 -Nl MAC -Nw --- -Ma 13a -Md 1 -Ms 0 -Mt 800 -Is 0.0 -Id 1.0 -It cbr -Il 590 -If 0 -Ii 8 -Iv 30 -Pn cbr -Pi 8 -Pf 0 -Po 0 
r -t 1.805494500 -Hs 1 -Hd 1 -Ni 1 -Nx 350.00 -Ny 200.00 -Nz 100.00 -Ne -1.000000 -Nl MAC -Nw --- -Ma 13a -Md 1 -Ms 0 -Mt 800 -Is 0.0 -Id 1.0 -It cbr -Il 532 -If 0 -Ii 8 -Iv 30 -Pn cbr -Pi 8 -Pf 1 -Po 0 
s -t 1.805504500 -Hs 1 -Hd -2 -Ni 1 -Nx 350.00 -Ny 200.00 -Nz 100.00 -Ne -1.000000 -Nl MAC -Nw --- -Ma 0 -Md 0 -Ms 0 -Mt 0 
r -t 1.805519500 -Hs 1 -Hd 1 -Ni 1 -Nx 350.00 -Ny 200.00 -Nz 100.00 -Ne -1.000000 -Nl AGT -Nw --- -Ma 13a -Md 1 -Ms 0 -Mt 800 -Is 0.0 -Id 1.0 -It cbr -Il 532 -If 0 -Ii 8 -Iv 30 -Pn cbr -Pi 8 -Pf 1 -Po 0 
r -t 1.805809667 -Hs 0 -Hd -2 -Ni 0 -Nx 0.00 -Ny 200.00 -Nz 100.00 -Ne -1.000000 -Nl MAC -Nw --- -Ma 0 -Md 0 -Ms 0 -Mt 0 
s -t 1.900000000 -Hs 0 -Hd -2 -Ni 0 -Nx 0.00 -Ny 200.00 -Nz 100.00 -Ne -1.000000 -Nl AGT -Nw --- -Ma 0 -Md 0 -Ms 0 -Mt 0 -Is 0.0 -Id 1.0 -It cbr -Il 512 -If 0 -Ii 9 -Iv 32 -Pn cbr -Pi 9 -Pf 0 -Po 0 
r -t 1.900000000 -Hs 0 -Hd -2 -Ni 0 -Nx 0.00 -Ny 200.00 -Nz 100.00 -Ne -1.000000 -Nl RTR -Nw --- -Ma 0 -Md 0 -Ms 0 -Mt 0 -Is 0.0 -Id 1.0 -It cbr -Il 512 -If 0 -Ii 9 -Iv 32 -Pn cbr -Pi 9 -Pf 0 -Po 0 
s -t 1.900000000 -Hs 0 -Hd 1 -Ni 0 -Nx 0.00 -Ny 200.00 -Nz 100.00 -Ne -1.000000 -Nl RTR -Nw --- -Ma 0 -Md 0 -Ms 0 -Mt 0 -Is 0.0 -Id 1.0 -It cbr -Il 532 -If 0 -Ii 9 -Iv 30 -Pn cbr -Pi 9 -Pf 0 -Po 0 
s -t 1.900515000 -Hs 0 -Hd -2 -Ni 0 -Nx 0.00 -Ny 200.00 -Nz 100.00 -Ne -1.000000 -Nl MAC -Nw --- -Ma 14ee -Md 1 -Ms 0 -Mt 0 
r -t 1.900868167 -Hs 1 -Hd -2 -Ni 1 -Nx 350.00 -Ny 200.00 -Nz 100.00 -Ne -1.000000 -Nl MAC -Nw --- -Ma 14ee -Md 1 -Ms 0 -Mt 0 
s -t 1.900878167 -Hs 1 -Hd -2 -Ni 1 -Nx 350.00 -Ny 200.00 -Nz 100.00 -Ne -1.000000 -Nl MAC -Nw --- -Ma 13b4 -Md 0 -Ms 0 -Mt 0 
r -t 1.901183333 -Hs 0 -Hd -2 -Ni 0 -Nx 0.00 -Ny 200.00 -Nz 100.00 -Ne -1.000000 -Nl MAC -Nw --- -Ma 13b4 -Md 0 -Ms 0 -Mt 0 
s -t 1.901193333 -Hs 0 -Hd 1 -Ni 0 -Nx 0.00 -Ny 200.00 -Nz 100.00 -Ne -1.000000 -Nl MAC -Nw --- -Ma 13a -Md 1 -Ms 0 -Mt 800 -Is 0.0 -Id 1.0 -It cbr -Il 590 -If 0 -Ii 9 -Iv 30 -Pn cbr -Pi 9 -Pf 0 -Po 0 
r -t 1.905914500 -Hs 1 -Hd 1 -Ni 1 -Nx 350.00 -Ny 200.00 -Nz 100.00 -Ne -1.000000 -Nl MAC -Nw --- -Ma 13a -Md 1 -Ms 0 -Mt 800 -Is 0.0 -Id 1.0 -It cbr -Il 532 -If 0 -Ii 9 -Iv 30 -Pn cbr -Pi 9 -Pf 1 -Po 0 
s -t 1.905924500 -Hs 1 -Hd -2 -Ni 1 -Nx 350.00 -Ny 200.00 -Nz 100.00 -Ne -1.000000 -Nl MAC -Nw --- -Ma 0 -Md 0 -Ms 0 -Mt 0 
r -t 1.905939500 -Hs 1 -Hd 1 -Ni 1 -Nx 350.00 -Ny 200.00 -Nz 100.00 -Ne -1.000000 -Nl AGT -Nw --- -Ma 13a -Md 1 -Ms 0 -Mt 800 -Is 0.0 -Id 1.0 -It cbr -Il 532 -If 0 -Ii 9 -Iv 30 -Pn cbr -Pi 9 -Pf 1 -Po 0 
r -t 1.906229667 -Hs 0 -Hd -2 -Ni 0 -Nx 0.00 -Ny 200.00 -Nz 100.00 -Ne -1.000000 -Nl MAC -Nw --- -Ma 0 -Md 0 -Ms 0 -Mt 0 
s -t 2.000000000 -Hs 0 -Hd -2 -Ni 0 -Nx 0.00 -Ny 200.00 -Nz 100.00 -Ne -1.000000 -Nl AGT -Nw --- -Ma 0 -Md 0 -Ms 0 -Mt 0 -Is 0.0 -Id 1.0 -It cbr -Il 512 -If 0 -Ii 10 -Iv 32 -Pn cbr -Pi 10 -Pf 0 -Po 0 
r -t 2.000000000 -Hs 0 -Hd -2 -Ni 0 -Nx 0.00 -Ny 200.00 -Nz 100.00 -Ne -1.000000 -Nl RTR -Nw --- -Ma 0 -Md 0 -Ms 0 -Mt 0 -Is 0.0 -Id 1.0 -It cbr -Il 512 -If 0 -Ii 10 -Iv 32 -Pn cbr -Pi 10 -Pf 0 -Po 0 
s -t 2.000000000 -Hs 0 -Hd 1 -Ni 0 -Nx 0.00 -Ny 200.00 -Nz 100.00 -Ne -1.000000 -Nl RTR -Nw --- -Ma 0 -Md 0 -Ms 0 -Mt 0 -Is 0.0 -Id 1.0 -It cbr -Il 532 -If 0 -Ii 10 -Iv 30 -Pn cbr -Pi 10 -Pf 0 -Po 0 
s -t 2.000655000 -Hs 0 -Hd -2 -Ni 0 -Nx 0.00 -Ny 200.00 -Nz 100.00 -Ne -1.000000 -Nl MAC -Nw --- -Ma 14ee -Md 1 -Ms 0 -Mt 0 
r -t 2.001008167 -Hs 1 -Hd -2 -Ni 1 -Nx 350.00 -Ny 200.00 -Nz 100.00 -Ne -1.000000 -Nl MAC -Nw --- -Ma 14ee -Md 1 -Ms 0 -Mt 0 
s -t 2.001018167 -Hs 1 -Hd -2 -Ni 1 -Nx 350.00 -Ny 200.00 -Nz 100.00 -Ne -1.000000 -Nl MAC -Nw --- -Ma 13b4 -Md 0 -Ms 0 -Mt 0 
r -t 2.001323333 -Hs 0 -Hd -2 -Ni 0 -Nx 0.00 -Ny 200.00 -Nz 100.00 -Ne -1.000000 -Nl MAC -Nw --- -Ma 13b4 -Md 0 -Ms 0 -Mt 0 
s -t 2.001333333 -Hs 0 -Hd 1 -Ni 0 -Nx 0.00 -Ny 200.00 -Nz 100.00 -Ne -1.000000 -Nl MAC -Nw --- -Ma 13a -Md 1 -Ms 0 -Mt 800 -Is 0.0 -Id 1.0 -It cbr -Il 590 -If 0 -Ii 10 -Iv 30 -Pn cbr -Pi 10 -Pf 0 -Po 0 
r -t 2.006054500 -Hs 1 -Hd 1 -Ni 1 -Nx 350.00 -Ny 200.00 -Nz 100.00 -Ne -1.000000 -Nl MAC -Nw --- -Ma 13a -Md 1 -Ms 0 -Mt 800 -Is 0.0 -Id 1.0 -It cbr -Il 532 -If 0 -Ii 10 -Iv 30 -Pn cbr -Pi 10 -Pf 1 -Po 0 
s -t 2.006064500 -Hs 1 -Hd -2 -Ni 1 -Nx 350.00 -Ny 200.00 -Nz 100.00 -Ne -1.000000 -Nl MAC -Nw --- -Ma 0 -Md 0 -Ms 0 -Mt 0 
r -t 2.006079500 -Hs 1 -Hd 1 -Ni 1 -Nx 350.00 -Ny 200.00 -Nz 100.00 -Ne -1.000000 -Nl AGT -Nw --- -Ma 13a -Md 1 -Ms 0 -Mt 800 -Is 0.0 -Id 1.0 -It cbr -Il 532 -If 0 -Ii 10 -Iv 30 -Pn cbr -Pi 10 -Pf 1 -Po 0 
r -t 2.006369667 -Hs 0 -Hd -2 -Ni 0 -Nx 0.00 -Ny 200.00 -Nz 100.00 -Ne -1.000000 -Nl MAC -Nw --- -Ma 0 -Md 0 -Ms 0 -Mt 0 
s -t 2.100000000 -Hs 0 -Hd -2 -Ni 0 -Nx 0.00 -Ny 200.00 -Nz 100.00 -Ne -1.000000 -Nl AGT -Nw --- -Ma 0 -Md 0 -Ms 0 -Mt 0 -Is 0.0 -Id 1.0 -It cbr -Il 512 -If 0 -Ii 11 -Iv 32 -Pn cbr -Pi 11 -Pf 0 -Po 0 
r -t 2.100000000 -Hs 0 -Hd -2 -Ni 0 -Nx 0.00 -Ny 200.00 -Nz 100.00 -Ne -1.000000 -Nl RTR -Nw --- -Ma 0 -Md 0 -Ms 0 -Mt 0 -Is 0.0 -Id 1.0 -It cbr -Il 512 -If 0 -Ii 11 -Iv 32 -Pn cbr -Pi 11 -Pf 0 -Po 0 
s -t 2.100000000 -Hs 0 -Hd 1 -Ni 0 -Nx 0.00 -Ny 200.00 -Nz 100.00 -Ne -1.000000 -Nl RTR -Nw --- -Ma 0 -Md 0 -Ms 0 -Mt 0 -Is 0.0 -Id 1.0 -It cbr -Il 532 -If 0 -Ii 11 -Iv 30 -Pn cbr -Pi 11 -Pf 0 -Po 0 
s -t 2.100615000 -Hs 0 -Hd -2 -Ni 0 -Nx 0.00 -Ny 200.00 -Nz 100.00 -Ne -1.000000 -Nl MAC -Nw --- -Ma 14ee -Md 1 -Ms 0 -Mt 0 
r -t 2.100968167 -Hs 1 -Hd -2 -Ni 1 -Nx 350.00 -Ny 200.00 -Nz 100.00 -Ne -1.000000 -Nl MAC -Nw --- -Ma 14ee -Md 1 -Ms 0 -Mt 0 
s -t 2.100978167 -Hs 1 -Hd -2 -Ni 1 -Nx 350.00 -Ny 200.00 -Nz 100.00 -Ne -1.000000 -Nl MAC -Nw --- -Ma 13b4 -Md 0 -Ms 0 -Mt 0 
r -t 2.101283333 -Hs 0 -Hd -2 -Ni 0 -Nx 0.00 -Ny 200.00 -Nz 100.00 -Ne -1.000000 -Nl MAC -Nw --- -Ma 13b4 -Md 0 -Ms 0 -Mt 0 
s -t 2.101293333 -Hs 0 -Hd 1 -Ni 0 -Nx 0.00 -Ny 200.00 -Nz 100.00 -Ne -1.000000 -Nl MAC -Nw --- -Ma 13a -Md 1 -Ms 0 -Mt 800 -Is 0.0 -Id 1.0 -It cbr -Il 590 -If 0 -Ii 11 -Iv 30 -Pn cbr -Pi 11 -Pf 0 -Po 0 
r -t 2.106014500 -Hs 1 -Hd 1 -Ni 1 -Nx 350.00 -Ny 200.00 -Nz 100.00 -Ne -1.000000 -Nl MAC -Nw --- -Ma 13a -Md 1 -Ms 0 -Mt 800 -Is 0.0 -Id 1.0 -It cbr -Il 532 -If 0 -Ii 11 -Iv 30 -Pn cbr -Pi 11 -Pf 1 -Po 0 
s -t 2.106024500 -Hs 1 -Hd -2 -Ni 1 -Nx 350.00 -Ny 200.00 -Nz 100.00 -Ne -1.000000 -Nl MAC -Nw --- -Ma 0 -Md 0 -Ms 0 -Mt 0 
r -t 2.106039500 -Hs 1 -Hd 1 -Ni 1 -Nx 350.00 -Ny 200.00 -Nz 100.00 -Ne -1.000000 -Nl AGT -Nw --- -Ma 13a -Md 1 -Ms 0 -Mt 800 -Is 0.0 -Id 1.0 -It cbr -Il 532 -If 0 -Ii 11 -Iv 30 -Pn cbr -Pi 11 -Pf 1 -Po 0 
r -t 2.106329667 -Hs 0 -Hd -2 -Ni 0 -Nx 0.00 -Ny 200.00 -Nz 100.00 -Ne -1.000000 -Nl MAC -Nw --- -Ma 0 -Md 0 -Ms 0 -Mt 0 
s -t 2.200000000 -Hs 0 -Hd -2 -Ni 0 -Nx 0.00 -Ny 200.00 -Nz 100.00 -Ne -1.000000 -Nl AGT -Nw --- -Ma 0 -Md 0 -Ms 0 -Mt 0 -Is 0.0 -Id 1.0 -It cbr -Il 512 -If 0 -Ii 12 -Iv 32 -Pn cbr -Pi 12 -Pf 0 -Po 0 
r -t 2.200000000 -Hs 0 -Hd -2 -Ni 0 -Nx 0.00 -Ny 200.00 -Nz 100.00 -Ne -1.000000 -Nl RTR -Nw --- -Ma 0 -Md 0 -Ms 0 -Mt 0 -Is 0.0 -Id 1.0 -It cbr -Il 512 -If 0 -Ii 12 -Iv 32 -Pn cbr -Pi 12 -Pf 0 -Po 0 
s -t 2.200000000 -Hs 0 -Hd 1 -Ni 0 -Nx 0.00 -Ny 200.00 -Nz 100.00 -Ne -1.000000 -Nl RTR -Nw --- -Ma 0 -Md 0 -Ms 0 -Mt 0 -Is 0.0 -Id 1.0 -It cbr -Il 532 -If 0 -Ii 12 -Iv 30 -Pn cbr -Pi 12 -Pf 0 -Po 0 
s -t 2.200115000 -Hs 0 -Hd -2 -Ni 0 -Nx 0.00 -Ny 200.00 -Nz 100.00 -Ne -1.000000 -Nl MAC -Nw --- -Ma 14ee -Md 1 -Ms 0 -Mt 0 
r -t 2.200468167 -Hs 1 -Hd -2 -Ni 1 -Nx 350.00 -Ny 200.00 -Nz 100.00 -Ne -1.000000 -Nl MAC -Nw --- -Ma 14ee -Md 1 -Ms 0 -Mt 0 
s -t 2.200478167 -Hs 1 -Hd -2 -Ni 1 -Nx 350.00 -Ny 200.00 -Nz 100.00 -Ne -1.000000 -Nl MAC -Nw --- -Ma 13b4 -Md 0 -Ms 0 -Mt 0 
r -t 2.200783333 -Hs 0 -Hd -2 -Ni 0 -Nx 0.00 -Ny 200.00 -Nz 100.00 -Ne -1.000000 -Nl MAC -Nw --- -Ma 13b4 -Md 0 -Ms 0 -Mt 0 
s -t 2.200793333 -Hs 0 -Hd 1 -Ni 0 -Nx 0.00 -Ny 200.00 -Nz 100.00 -Ne -1.000000 -Nl MAC -Nw --- -Ma 13a -Md 1 -Ms 0 -Mt 800 -Is 0.0 -Id 1.0 -It cbr -Il 590 -If 0 -Ii 12 -Iv 30 -Pn cbr -Pi 12 -Pf 0 -Po 0 
r -t 2.205514500 -Hs 1 -Hd 1 -Ni 1 -Nx 350.00 -Ny 200.00 -Nz 100.00 -Ne -1.000000 -Nl MAC -Nw --- -Ma 13a -Md 1 -Ms 0 -Mt 800 -Is 0.0 -Id 1.0 -It cbr -Il 532 -If 0 -Ii 12 -Iv 30 -Pn cbr -Pi 12 -Pf 1 -Po 0 
s -t 2.205524500 -Hs 1 -Hd -2 -Ni 1 -Nx 350.00 -Ny 200.00 -Nz 100.00 -Ne -1.000000 -Nl MAC -Nw --- -Ma 0 -Md 0 -Ms 0 -Mt 0 
r -t 2.205539500 -Hs 1 -Hd 1 -Ni 1 -Nx 350.00 -Ny 200.00 -Nz 100.00 -Ne -1.000000 -Nl AGT -Nw --- -Ma 13a -Md 1 -Ms 0 -Mt 800 -Is 0.0 -Id 1.0 -It cbr -Il 532 -If 0 -Ii 12 -Iv 30 -Pn cbr -Pi 12 -Pf 1 -Po 0 
r -t 2.205829667 -Hs 0 -Hd -2 -Ni 0 -Nx 0.00 -Ny 200.00 -Nz 100.00 -Ne -1.000000 -Nl MAC -Nw --- -Ma 0 -Md 0 -Ms 0 -Mt 0 
s -t 2.300000000 -Hs 0 -Hd -2 -Ni 0 -Nx 0.00 -Ny 200.00 -Nz 100.00 -Ne -1.000000 -Nl AGT -Nw --- -Ma 0 -Md 0 -Ms 0 -Mt 0 -Is 0.0 -Id 1.0 -It cbr -Il 512 -If 0 -Ii 13 -Iv 32 -Pn cbr -Pi 13 -Pf 0 -Po 0 